
     Program PWSCF v.5.1.1 starts on 29May2017 at  6: 3: 5 

     This program is part of the open-source Quantum ESPRESSO suite
     for quantum simulation of materials; please cite
         "P. Giannozzi et al., J. Phys.:Condens. Matter 21 395502 (2009);
          URL http://www.quantum-espresso.org", 
     in publications or presentations arising from this work. More details at
     http://www.quantum-espresso.org/quote

     Parallel version (MPI), running on    84 processors
     R & G space division:  proc/nbgrp/npool/nimage =      84
     Waiting for input...
     Reading input from standard input
Warning: card &CELL ignored
Warning: card   CELL_DYNAMICS = 'BFGS', ignored
Warning: card   CELL_DOFREE = 'XYZ', ignored
Warning: card / ignored
     Message from routine read_cards :
     DEPRECATED: no units specified in CELL_PARAMETERS card

     Current dimensions of program PWSCF are:
     Max number of different atomic species (ntypx) = 10
     Max number of k-points (npk) =  40000
     Max angular momentum in pseudopotentials (lmaxx) =  3
               file Ga.pbe-dn-rrkjus_psl.0.2.UPF: wavefunction(s)  4S 3D renormalized

     Subspace diagonalization in iterative solution of the eigenvalue problem:
     a serial algorithm will be used

     Found symmetry operation: I + ( -0.0000  0.5000 -0.5000)
     This is a supercell, fractional translations are disabled
 
     Parallelization info
     --------------------
     sticks:   dense  smooth     PW     G-vecs:    dense   smooth      PW
     Min          56      22      6                 2882      722     102
     Max          57      23      7                 2888      743     107
     Sum        4709    1885    517               242361    61445    8829
 


     bravais-lattice index     =            0
     lattice parameter (alat)  =       1.8900  a.u.
     unit-cell volume          =    1283.4561 (a.u.)^3
     number of atoms/cell      =            8
     number of atomic types    =            2
     number of electrons       =        72.00
     number of Kohn-Sham states=           43
     kinetic-energy cutoff     =      50.0000  Ry
     charge density cutoff     =     500.0000  Ry
     convergence threshold     =      1.0E-05
     mixing beta               =       0.4500
     number of iterations used =            8  plain     mixing
     Exchange-correlation      = PBE ( 1  4  3  4 0 0)
     nstep                     =         6000


     celldm(1)=   1.890000  celldm(2)=   0.000000  celldm(3)=   0.000000
     celldm(4)=   0.000000  celldm(5)=   0.000000  celldm(6)=   0.000000

     crystal axes: (cart. coord. in units of alat)
               a(1) = (   5.749965   0.000000   0.000000 )  
               a(2) = (   0.000000   5.749964   0.000000 )  
               a(3) = (   0.000000   0.000000   5.749965 )  

     reciprocal axes: (cart. coord. in units 2 pi/alat)
               b(1) = (  0.173914  0.000000  0.000000 )  
               b(2) = (  0.000000  0.173914  0.000000 )  
               b(3) = (  0.000000  0.000000  0.173914 )  


     PseudoPot. # 1 for Ga read from file:
     ./Ga.pbe-dn-rrkjus_psl.0.2.UPF
     MD5 check sum: 4e775fc617800c9e50cef8def119d1fe
     Pseudo is Ultrasoft + core correction, Zval = 13.0
     Generated using "atomic" code by A. Dal Corso  v.5.0.2 svn rev. 9415
     Using radial grid of 1205 points,  6 beta functions with: 
                l(1) =   0
                l(2) =   0
                l(3) =   1
                l(4) =   1
                l(5) =   2
                l(6) =   2
     Q(r) pseudized with 0 coefficients 


     PseudoPot. # 2 for As read from file:
     ./As.pbe-n-rrkjus_psl.0.2.UPF
     MD5 check sum: ca6deb6a0ec53d83fc9d84b8b738ea37
     Pseudo is Ultrasoft + core correction, Zval =  5.0
     Generated using "atomic" code by A. Dal Corso  v.5.0.2 svn rev. 9415
     Using radial grid of 1209 points,  4 beta functions with: 
                l(1) =   0
                l(2) =   0
                l(3) =   1
                l(4) =   1
     Q(r) pseudized with 0 coefficients 


     atomic species   valence    mass     pseudopotential
        Ga            13.00    69.72300     Ga( 1.00)
        As             5.00    74.92200     As( 1.00)

     No symmetry found



   Cartesian axes

     site n.     atom                  positions (alat units)
         1           Ga  tau(   1) = (   0.0000031  -0.0000044   0.0000016  )
         2           Ga  tau(   2) = (   0.0000017   2.8749712   2.8749847  )
         3           Ga  tau(   3) = (   2.8749938   0.0000074   2.8749783  )
         4           Ga  tau(   4) = (   2.8749672   2.8749899  -0.0000003  )
         5           As  tau(   5) = (   1.4374897   1.4374899   1.4374891  )
         6           As  tau(   6) = (   4.3124776   4.3124655   1.4374902  )
         7           As  tau(   7) = (   4.3124735   1.4374960   4.3124868  )
         8           As  tau(   8) = (   1.4374889   4.3124777   4.3124655  )

     number of k points=    14  gaussian smearing, width (Ry)=  0.0050
                       cart. coord. in units 2pi/alat
        k(    1) = (   0.0000000   0.0000000   0.0000000), wk =   0.0740741
        k(    2) = (   0.0000000   0.0000000   0.0579714), wk =   0.1481481
        k(    3) = (   0.0000000   0.0579714   0.0000000), wk =   0.1481481
        k(    4) = (   0.0000000   0.0579714   0.0579714), wk =   0.1481481
        k(    5) = (   0.0000000   0.0579714  -0.0579714), wk =   0.1481481
        k(    6) = (   0.0579714   0.0000000   0.0000000), wk =   0.1481481
        k(    7) = (   0.0579714   0.0000000   0.0579714), wk =   0.1481481
        k(    8) = (   0.0579714   0.0000000  -0.0579714), wk =   0.1481481
        k(    9) = (   0.0579714   0.0579714   0.0000000), wk =   0.1481481
        k(   10) = (   0.0579714   0.0579714   0.0579714), wk =   0.1481481
        k(   11) = (   0.0579714   0.0579714  -0.0579714), wk =   0.1481481
        k(   12) = (   0.0579714  -0.0579714   0.0000000), wk =   0.1481481
        k(   13) = (   0.0579714  -0.0579714   0.0579714), wk =   0.1481481
        k(   14) = (   0.0579714  -0.0579714  -0.0579714), wk =   0.1481481

     Dense  grid:   242361 G-vectors     FFT dimensions: (  80,  80,  80)

     Smooth grid:    61445 G-vectors     FFT dimensions: (  50,  50,  50)

     Largest allocated arrays     est. size (Mb)     dimensions
        Kohn-Sham Wavefunctions         0.06 Mb     (      96,   43)
        NL pseudopotentials             0.15 Mb     (      96,  104)
        Each V/rho on FFT grid          0.10 Mb     (    6400)
        Each G-vector array             0.02 Mb     (    2886)
        G-vector shells                 0.01 Mb     (    1467)
     Largest temporary arrays     est. size (Mb)     dimensions
        Auxiliary wavefunctions         0.25 Mb     (      96,  172)
        Each subspace H/S matrix        0.45 Mb     (     172,  172)
        Each <psi_i|beta_j> matrix      0.07 Mb     (     104,   43)
        Arrays for rho mixing           0.78 Mb     (    6400,    8)

     Initial potential from superposition of free atoms

     starting charge   71.98724, renormalised to   72.00000
     Starting wfc are   52 randomized atomic wfcs

     total cpu time spent up to now is        1.9 secs

     per-process dynamical memory:    79.3 Mb

     Self-consistent Calculation

     iteration #  1     ecut=    50.00 Ry     beta=0.45
     Davidson diagonalization with overlap
     ethr =  1.00E-02,  avg # of iterations =  2.9

     Threshold (ethr) on eigenvalues was too large:
     Diagonalizing with lowered threshold

     Davidson diagonalization with overlap
     ethr =  2.87E-04,  avg # of iterations =  2.3

     total cpu time spent up to now is        3.3 secs

     total energy              =    -764.06866066 Ry
     Harris-Foulkes estimate   =    -764.13982289 Ry
     estimated scf accuracy    <       0.20046620 Ry

     iteration #  2     ecut=    50.00 Ry     beta=0.45
     Davidson diagonalization with overlap
     ethr =  2.78E-04,  avg # of iterations =  2.1

     total cpu time spent up to now is        4.1 secs

     total energy              =    -764.09386554 Ry
     Harris-Foulkes estimate   =    -764.09561878 Ry
     estimated scf accuracy    <       0.02598933 Ry

     iteration #  3     ecut=    50.00 Ry     beta=0.45
     Davidson diagonalization with overlap
     ethr =  3.61E-05,  avg # of iterations =  1.9

     total cpu time spent up to now is        4.7 secs

     total energy              =    -764.09439399 Ry
     Harris-Foulkes estimate   =    -764.09457552 Ry
     estimated scf accuracy    <       0.00575484 Ry

     iteration #  4     ecut=    50.00 Ry     beta=0.45
     Davidson diagonalization with overlap
     ethr =  7.99E-06,  avg # of iterations =  2.6

     total cpu time spent up to now is        5.3 secs

     total energy              =    -764.09461387 Ry
     Harris-Foulkes estimate   =    -764.09460680 Ry
     estimated scf accuracy    <       0.00006002 Ry

     iteration #  5     ecut=    50.00 Ry     beta=0.45
     Davidson diagonalization with overlap
     ethr =  8.34E-08,  avg # of iterations =  4.8

     total cpu time spent up to now is        6.3 secs

     total energy              =    -764.09465845 Ry
     Harris-Foulkes estimate   =    -764.09465689 Ry
     estimated scf accuracy    <       0.00001676 Ry

     iteration #  6     ecut=    50.00 Ry     beta=0.45
     Davidson diagonalization with overlap
     ethr =  2.33E-08,  avg # of iterations =  3.1

     total cpu time spent up to now is        7.1 secs

     total energy              =    -764.09465939 Ry
     Harris-Foulkes estimate   =    -764.09466578 Ry
     estimated scf accuracy    <       0.00001231 Ry

     iteration #  7     ecut=    50.00 Ry     beta=0.45
     Davidson diagonalization with overlap
     ethr =  1.71E-08,  avg # of iterations =  2.4

     total cpu time spent up to now is        7.8 secs

     End of self-consistent calculation

          k = 0.0000 0.0000 0.0000 (  7689 PWs)   bands (ev):

    -8.6435  -8.6435  -8.6435  -8.5521  -8.5521  -8.5521  -8.5110  -8.5110
    -8.5110  -8.5109  -8.5109  -8.5109  -8.5054  -8.5054  -8.5054  -8.4852
    -8.4852  -8.4733  -8.4733  -8.4732  -6.2006  -3.9171  -3.9171  -3.9171
    -0.4225  -0.4225  -0.4225   3.6659   3.6659   3.6659   3.6659   3.6659
     3.6659   6.1767   6.1767   6.1767   6.3215   7.7214   7.7214   7.7215
     7.8388   7.8388   7.8388

          k = 0.0000 0.0000 0.0580 (  7696 PWs)   bands (ev):

    -8.6351  -8.6351  -8.6243  -8.5795  -8.5422  -8.5422  -8.5223  -8.5223
    -8.5216  -8.5216  -8.5137  -8.5136  -8.4998  -8.4972  -8.4972  -8.4895
    -8.4822  -8.4781  -8.4781  -8.4762  -5.8052  -4.7625  -3.8814  -3.8814
    -0.3032  -0.3032   0.9186   3.0457   3.0457   3.1832   3.1832   3.4236
     4.0928   4.0929   5.2355   5.2355   7.7913   8.5833   8.7908   9.1363
     9.4493   9.4493   9.5255

          k = 0.0000 0.0580 0.0000 (  7696 PWs)   bands (ev):

    -8.6351  -8.6351  -8.6243  -8.5795  -8.5422  -8.5422  -8.5223  -8.5223
    -8.5216  -8.5216  -8.5137  -8.5136  -8.4998  -8.4972  -8.4972  -8.4895
    -8.4822  -8.4781  -8.4781  -8.4762  -5.8052  -4.7625  -3.8815  -3.8814
    -0.3032  -0.3032   0.9186   3.0457   3.0457   3.1832   3.1832   3.4236
     4.0928   4.0928   5.2355   5.2355   7.7913   8.5833   8.7908   9.1363
     9.4493   9.4493   9.5255

          k = 0.0000 0.0580 0.0580 (  7635 PWs)   bands (ev):

    -8.6274  -8.6210  -8.6210  -8.5908  -8.5414  -8.5386  -8.5294  -8.5294
    -8.5266  -8.5234  -8.5234  -8.5208  -8.4933  -8.4933  -8.4914  -8.4874
    -8.4830  -8.4815  -8.4793  -8.4793  -5.4459  -4.5378  -4.5378  -4.0902
    -0.0906   0.5119   0.5119   2.1127   2.4596   3.1677   3.1677   4.2214
     4.2604   4.2604   4.3447   5.6817   8.3992   8.5441   9.4934   9.4934
     9.9205   9.9205  10.5751

          k = 0.0000 0.0580-0.0580 (  7635 PWs)   bands (ev):

    -8.6274  -8.6210  -8.6210  -8.5908  -8.5414  -8.5386  -8.5294  -8.5294
    -8.5266  -8.5234  -8.5234  -8.5208  -8.4933  -8.4933  -8.4914  -8.4874
    -8.4830  -8.4815  -8.4793  -8.4793  -5.4459  -4.5378  -4.5378  -4.0902
    -0.0906   0.5119   0.5119   2.1127   2.4596   3.1677   3.1677   4.2214
     4.2604   4.2604   4.3447   5.6817   8.3992   8.5441   9.4934   9.4934
     9.9205   9.9205  10.5750

          k = 0.0580 0.0000 0.0000 (  7696 PWs)   bands (ev):

    -8.6351  -8.6351  -8.6243  -8.5795  -8.5422  -8.5422  -8.5223  -8.5223
    -8.5216  -8.5216  -8.5137  -8.5136  -8.4998  -8.4972  -8.4972  -8.4895
    -8.4822  -8.4781  -8.4781  -8.4762  -5.8052  -4.7625  -3.8814  -3.8814
    -0.3032  -0.3032   0.9186   3.0457   3.0457   3.1832   3.1832   3.4236
     4.0928   4.0929   5.2355   5.2355   7.7913   8.5833   8.7908   9.1363
     9.4493   9.4493   9.5255

          k = 0.0580 0.0000 0.0580 (  7635 PWs)   bands (ev):

    -8.6274  -8.6210  -8.6210  -8.5908  -8.5414  -8.5386  -8.5294  -8.5294
    -8.5266  -8.5234  -8.5234  -8.5208  -8.4933  -8.4933  -8.4914  -8.4874
    -8.4830  -8.4815  -8.4793  -8.4793  -5.4459  -4.5378  -4.5378  -4.0902
    -0.0906   0.5119   0.5119   2.1127   2.4596   3.1677   3.1677   4.2214
     4.2604   4.2604   4.3447   5.6817   8.3992   8.5441   9.4934   9.4934
     9.9205   9.9205  10.5750

          k = 0.0580 0.0000-0.0580 (  7635 PWs)   bands (ev):

    -8.6274  -8.6210  -8.6210  -8.5908  -8.5414  -8.5386  -8.5294  -8.5294
    -8.5266  -8.5234  -8.5234  -8.5208  -8.4933  -8.4933  -8.4914  -8.4874
    -8.4830  -8.4815  -8.4793  -8.4793  -5.4459  -4.5378  -4.5378  -4.0902
    -0.0906   0.5119   0.5119   2.1127   2.4596   3.1677   3.1677   4.2214
     4.2604   4.2604   4.3447   5.6817   8.3992   8.5441   9.4934   9.4934
     9.9205   9.9205  10.5751

          k = 0.0580 0.0580 0.0000 (  7635 PWs)   bands (ev):

    -8.6274  -8.6210  -8.6210  -8.5908  -8.5414  -8.5386  -8.5295  -8.5294
    -8.5266  -8.5234  -8.5234  -8.5208  -8.4933  -8.4932  -8.4914  -8.4874
    -8.4830  -8.4815  -8.4793  -8.4793  -5.4459  -4.5378  -4.5378  -4.0902
    -0.0906   0.5119   0.5119   2.1127   2.4596   3.1677   3.1677   4.2214
     4.2604   4.2604   4.3447   5.6817   8.3992   8.5441   9.4934   9.4934
     9.9205   9.9205  10.5753

          k = 0.0580 0.0580 0.0580 (  7661 PWs)   bands (ev):

    -8.6192  -8.6192  -8.6192  -8.6005  -8.5389  -8.5389  -8.5323  -8.5323
    -8.5323  -8.5290  -8.5290  -8.5290  -8.4877  -8.4877  -8.4877  -8.4834
    -8.4834  -8.4801  -8.4801  -8.4801  -5.1448  -4.4675  -4.4674  -4.4674
     0.0050   0.0051   0.0051   0.9602   3.6783   3.6783   3.6783   4.6422
     4.6422   4.6422   5.3095   5.3095   7.2401   8.3892   8.3893   8.3893
    10.5676  10.5676  10.5676

          k = 0.0580 0.0580-0.0580 (  7661 PWs)   bands (ev):

    -8.6192  -8.6192  -8.6192  -8.6005  -8.5389  -8.5389  -8.5323  -8.5323
    -8.5323  -8.5290  -8.5290  -8.5290  -8.4877  -8.4877  -8.4877  -8.4834
    -8.4834  -8.4801  -8.4801  -8.4801  -5.1448  -4.4675  -4.4674  -4.4674
     0.0050   0.0051   0.0051   0.9602   3.6783   3.6783   3.6783   4.6422
     4.6422   4.6422   5.3095   5.3095   7.2401   8.3892   8.3893   8.3893
    10.5676  10.5676  10.5676

          k = 0.0580-0.0580 0.0000 (  7635 PWs)   bands (ev):

    -8.6274  -8.6210  -8.6210  -8.5908  -8.5414  -8.5386  -8.5295  -8.5294
    -8.5266  -8.5234  -8.5234  -8.5208  -8.4933  -8.4932  -8.4914  -8.4874
    -8.4830  -8.4815  -8.4793  -8.4793  -5.4459  -4.5378  -4.5378  -4.0902
    -0.0906   0.5119   0.5119   2.1127   2.4596   3.1677   3.1677   4.2214
     4.2604   4.2604   4.3447   5.6817   8.3992   8.5441   9.4934   9.4934
     9.9205   9.9205  10.5753

          k = 0.0580-0.0580 0.0580 (  7661 PWs)   bands (ev):

    -8.6192  -8.6192  -8.6192  -8.6005  -8.5389  -8.5389  -8.5323  -8.5323
    -8.5323  -8.5290  -8.5290  -8.5290  -8.4877  -8.4877  -8.4877  -8.4834
    -8.4834  -8.4801  -8.4801  -8.4801  -5.1448  -4.4675  -4.4674  -4.4674
     0.0050   0.0051   0.0051   0.9602   3.6783   3.6783   3.6783   4.6422
     4.6422   4.6422   5.3095   5.3095   7.2401   8.3893   8.3893   8.3893
    10.5676  10.5677  10.5678

          k = 0.0580-0.0580-0.0580 (  7661 PWs)   bands (ev):

    -8.6192  -8.6192  -8.6192  -8.6005  -8.5389  -8.5389  -8.5323  -8.5323
    -8.5323  -8.5290  -8.5290  -8.5290  -8.4877  -8.4877  -8.4877  -8.4834
    -8.4834  -8.4801  -8.4801  -8.4801  -5.1448  -4.4675  -4.4674  -4.4674
     0.0051   0.0051   0.0051   0.9602   3.6783   3.6783   3.6783   4.6422
     4.6422   4.6422   5.3095   5.3095   7.2401   8.3892   8.3893   8.3893
    10.5676  10.5676  10.5676

     the Fermi energy is     6.2627 ev

!    total energy              =    -764.09466170 Ry
     Harris-Foulkes estimate   =    -764.09466156 Ry
     estimated scf accuracy    <       0.00000012 Ry

     convergence has been achieved in   7 iterations

     Forces acting on atoms (Ry/au):

     atom    1 type  1   force =    -0.00000544   -0.00001028   -0.00000937
     atom    2 type  1   force =    -0.00000257    0.00000956    0.00000954
     atom    3 type  1   force =    -0.00000108   -0.00000864    0.00001098
     atom    4 type  1   force =     0.00000652    0.00000960   -0.00001108
     atom    5 type  2   force =     0.00000290   -0.00000048    0.00000307
     atom    6 type  2   force =    -0.00000044   -0.00000065    0.00000356
     atom    7 type  2   force =    -0.00000125    0.00000074   -0.00000390
     atom    8 type  2   force =     0.00000137    0.00000017   -0.00000279

     Total force =     0.000030     Total SCF correction =     0.000044
     SCF correction compared to forces is large: reduce conv_thr to get better values

     Molecular Dynamics Calculation

     Starting temperature  =   300.00 K

     temperature is controlled by Andersen thermostat
     Collision frequency = 0.0400/timestep
     mass Ga               =    69.72
     mass As               =    74.92
     Time step             =    20.67 a.u.,  1.0000 femto-seconds


     Entering Dynamics:    iteration =  2003
                           time      =   2.0030 pico-seconds


     Andersen thermostat:    1 collisions

ATOMIC_POSITIONS (crystal)
Ga       0.018106703  -0.019844670   0.017370020
Ga      -0.018491777   0.506865550   0.519985035
Ga       0.505145120   0.021198087   0.488574329
Ga       0.496793262   0.481514480  -0.029028636
As       0.237682989   0.257291552   0.259958886
As       0.726416408   0.755003103   0.252311561
As       0.764754808   0.235582714   0.761939494
As       0.269700268   0.761676769   0.728674259


     kinetic energy (Ekin) =     0.03426696 Ry
     temperature           =   515.26839988 K 
     Ekin + Etot (const)   =  -764.03830721 Ry
     Message from routine dynamics:
     Total linear momentum <> 0

     Linear momentum :   -1.3138881951   -0.5895097121    2.4528681165

     Writing output data file x.save

     second order wave-functions extrapolation
     second order charge density extrapolation

     total cpu time spent up to now is     5531.5 secs

     per-process dynamical memory:    87.0 Mb

     Self-consistent Calculation

     iteration #  1     ecut=    50.00 Ry     beta=0.45
     Davidson diagonalization with overlap
     ethr =  1.00E-06,  avg # of iterations =  2.0

     Threshold (ethr) on eigenvalues was too large:
     Diagonalizing with lowered threshold

     Davidson diagonalization with overlap
     ethr =  1.56E-08,  avg # of iterations =  1.8

     total cpu time spent up to now is     5532.8 secs

     total energy              =    -764.07260443 Ry
     Harris-Foulkes estimate   =    -764.07261186 Ry
     estimated scf accuracy    <       0.00001170 Ry

     iteration #  2     ecut=    50.00 Ry     beta=0.45
     Davidson diagonalization with overlap
     ethr =  1.63E-08,  avg # of iterations =  2.3

     total cpu time spent up to now is     5533.4 secs

     End of self-consistent calculation

          k = 0.0000 0.0000 0.0000 (  7689 PWs)   bands (ev):

    -8.6813  -8.6764  -8.6669  -8.5766  -8.5671  -8.5628  -8.5594  -8.5582
    -8.5285  -8.5224  -8.5105  -8.5037  -8.5030  -8.4973  -8.4938  -8.4810
    -8.4796  -8.4795  -8.4633  -8.4555  -6.1971  -4.0255  -3.8919  -3.8132
    -0.5657  -0.3355  -0.2826   3.6030   3.6052   3.6237   3.6916   3.7587
     3.8228   6.0654   6.1627   6.2286   6.3319   7.4540   7.5949   7.6863
     7.7161   7.8503   8.1027

          k = 0.0000 0.0000 0.0580 (  7696 PWs)   bands (ev):

    -8.6781  -8.6664  -8.6591  -8.5856  -8.5696  -8.5619  -8.5576  -8.5528
    -8.5322  -8.5263  -8.5173  -8.5094  -8.5006  -8.4998  -8.4928  -8.4875
    -8.4808  -8.4783  -8.4646  -8.4574  -5.8121  -4.7488  -3.9486  -3.7923
    -0.3838  -0.1747   0.9420   2.9898   3.0291   3.1447   3.2246   3.5288
     4.1005   4.1255   5.2142   5.3074   7.7717   8.5074   8.6913   9.0329
     9.1350   9.3101   9.6369

          k = 0.0000 0.0580 0.0000 (  7696 PWs)   bands (ev):

    -8.6748  -8.6681  -8.6587  -8.5909  -8.5665  -8.5605  -8.5582  -8.5564
    -8.5330  -8.5240  -8.5165  -8.5056  -8.5024  -8.4999  -8.4940  -8.4879
    -8.4796  -8.4773  -8.4657  -8.4579  -5.8114  -4.7596  -3.9274  -3.7979
    -0.4129  -0.1617   0.9512   2.9496   3.0541   3.1239   3.2167   3.5520
     4.0991   4.1516   5.2362   5.3264   7.6955   8.4042   8.6549   8.9526
     9.2928   9.4497   9.6428

          k = 0.0000 0.0580 0.0580 (  7635 PWs)   bands (ev):

    -8.6740  -8.6621  -8.6538  -8.5958  -8.5661  -8.5604  -8.5581  -8.5526
    -8.5377  -8.5268  -8.5203  -8.5116  -8.5062  -8.4969  -8.4946  -8.4893
    -8.4805  -8.4766  -8.4657  -8.4578  -5.4620  -4.5805  -4.4882  -4.0466
    -0.0867   0.4926   0.5740   2.1041   2.4798   3.1232   3.2007   4.0860
     4.2952   4.4143   4.4212   5.7133   8.2936   8.5120   9.2907   9.5350
     9.8253   9.9089  10.5705

          k = 0.0000 0.0580-0.0580 (  7635 PWs)   bands (ev):

    -8.6727  -8.6642  -8.6539  -8.5930  -8.5686  -8.5604  -8.5581  -8.5528
    -8.5391  -8.5256  -8.5185  -8.5134  -8.5042  -8.4971  -8.4956  -8.4893
    -8.4806  -8.4762  -8.4656  -8.4579  -5.4607  -4.6073  -4.4605  -4.0479
    -0.0920   0.4467   0.6386   2.0634   2.4746   3.1154   3.2690   4.0853
     4.2291   4.4240   4.4401   5.7292   8.2825   8.5527   9.3551   9.4462
     9.7783   9.8724  10.5703

          k = 0.0580 0.0000 0.0000 (  7696 PWs)   bands (ev):

    -8.6773  -8.6704  -8.6561  -8.5855  -8.5647  -8.5619  -8.5600  -8.5545
    -8.5318  -8.5259  -8.5183  -8.5140  -8.5005  -8.4979  -8.4911  -8.4838
    -8.4830  -8.4805  -8.4639  -8.4568  -5.8077  -4.7693  -3.8787  -3.8452
    -0.3445  -0.2057   0.9271   2.9688   3.0446   3.0934   3.2103   3.5338
     4.1348   4.1733   5.2564   5.2859   7.7328   8.4682   8.6767   8.9403
     9.3220   9.4501   9.5706

          k = 0.0580 0.0000 0.0580 (  7635 PWs)   bands (ev):

    -8.6737  -8.6637  -8.6516  -8.5963  -8.5648  -8.5615  -8.5580  -8.5492
    -8.5384  -8.5309  -8.5216  -8.5167  -8.5015  -8.4962  -8.4930  -8.4874
    -8.4820  -8.4776  -8.4650  -8.4578  -5.4632  -4.6234  -4.4111  -4.0792
    -0.0239   0.3856   0.5568   2.1115   2.5283   3.1236   3.2562   4.1250
     4.2654   4.3477   4.5186   5.6620   8.1863   8.4440   9.3461   9.5280
     9.7547   9.8807  10.5123

          k = 0.0580 0.0000-0.0580 (  7635 PWs)   bands (ev):

    -8.6734  -8.6628  -8.6542  -8.5930  -8.5646  -8.5611  -8.5584  -8.5513
    -8.5392  -8.5299  -8.5217  -8.5157  -8.5021  -8.4962  -8.4928  -8.4875
    -8.4820  -8.4783  -8.4649  -8.4578  -5.4537  -4.5998  -4.4891  -4.0376
    -0.1264   0.4866   0.6950   2.0360   2.4519   3.1127   3.2415   4.0701
     4.2576   4.3752   4.4238   5.7880   8.3378   8.5599   9.3169   9.5615
     9.7739   9.9804  10.5213

          k = 0.0580 0.0580 0.0000 (  7635 PWs)   bands (ev):

    -8.6725  -8.6640  -8.6535  -8.5960  -8.5665  -8.5602  -8.5570  -8.5486
    -8.5400  -8.5283  -8.5198  -8.5162  -8.5055  -8.4968  -8.4937  -8.4854
    -8.4814  -8.4780  -8.4654  -8.4578  -5.4596  -4.6515  -4.3986  -4.0642
    -0.0615   0.3661   0.6345   2.0964   2.5345   3.1115   3.2503   4.0735
     4.2860   4.3610   4.4992   5.6493   8.3268   8.5181   9.2075   9.6268
     9.7609   9.8806  10.5919

          k = 0.0580 0.0580 0.0580 (  7661 PWs)   bands (ev):

    -8.6717  -8.6618  -8.6517  -8.6038  -8.5638  -8.5615  -8.5588  -8.5510
    -8.5397  -8.5333  -8.5238  -8.5168  -8.5030  -8.4994  -8.4937  -8.4853
    -8.4801  -8.4744  -8.4648  -8.4568  -5.1717  -4.6105  -4.4185  -4.3034
    -0.1012  -0.0270   0.0786   1.0496   3.6196   3.7239   3.8473   4.5617
     4.6107   4.7770   5.2961   5.3669   7.1347   8.1942   8.2793   8.5378
    10.2466  10.4574  10.6081

          k = 0.0580 0.0580-0.0580 (  7661 PWs)   bands (ev):

    -8.6706  -8.6634  -8.6536  -8.5975  -8.5672  -8.5614  -8.5597  -8.5502
    -8.5448  -8.5274  -8.5245  -8.5152  -8.5064  -8.4985  -8.4934  -8.4842
    -8.4800  -8.4754  -8.4647  -8.4570  -5.1623  -4.5803  -4.4599  -4.3151
    -0.1121   0.0474   0.1540   0.9460   3.5151   3.6794   3.7969   4.6174
     4.6877   4.6983   5.2924   5.4475   7.2265   8.2837   8.3395   8.4474
    10.2710  10.4770  10.6555

          k = 0.0580-0.0580 0.0000 (  7635 PWs)   bands (ev):

    -8.6739  -8.6643  -8.6513  -8.5939  -8.5676  -8.5606  -8.5593  -8.5521
    -8.5366  -8.5261  -8.5216  -8.5147  -8.5054  -8.4966  -8.4942  -8.4852
    -8.4818  -8.4782  -8.4654  -8.4578  -5.4568  -4.6366  -4.4357  -4.0463
    -0.1083   0.3828   0.7411   2.0308   2.4776   3.1226   3.2839   4.1232
     4.2014   4.3852   4.4144   5.7609   8.2565   8.6320   9.2317   9.5945
     9.7819   9.8839  10.6210

          k = 0.0580-0.0580 0.0580 (  7661 PWs)   bands (ev):

    -8.6715  -8.6645  -8.6496  -8.5988  -8.5697  -8.5620  -8.5609  -8.5494
    -8.5414  -8.5297  -8.5240  -8.5149  -8.5030  -8.5005  -8.4937  -8.4849
    -8.4802  -8.4741  -8.4649  -8.4571  -5.1712  -4.5846  -4.4294  -4.3250
    -0.0989  -0.0571   0.1758   0.9949   3.5648   3.7296   3.7975   4.5936
     4.6542   4.7042   5.3160   5.4442   7.1602   8.2356   8.3323   8.4192
    10.2979  10.4649  10.5889

          k = 0.0580-0.0580-0.0580 (  7661 PWs)   bands (ev):

    -8.6730  -8.6605  -8.6530  -8.5976  -8.5671  -8.5626  -8.5592  -8.5508
    -8.5441  -8.5298  -8.5214  -8.5165  -8.5057  -8.4984  -8.4935  -8.4841
    -8.4803  -8.4757  -8.4648  -8.4569  -5.1623  -4.5620  -4.4284  -4.3715
    -0.0943   0.0445   0.1937   0.9111   3.5319   3.6489   3.7132   4.6408
     4.6878   4.7033   5.3532   5.4409   7.2303   8.2756   8.3734   8.4270
    10.2842  10.5655  10.6979

     the Fermi energy is     6.2810 ev

!    total energy              =    -764.07260681 Ry
     Harris-Foulkes estimate   =    -764.07260933 Ry
     estimated scf accuracy    <       0.00000280 Ry

     convergence has been achieved in   2 iterations

     Forces acting on atoms (Ry/au):

     atom    1 type  1   force =    -0.00629673   -0.00551154   -0.00414217
     atom    2 type  1   force =     0.00904950    0.01708460   -0.02384962
     atom    3 type  1   force =     0.00276623    0.00911195    0.00579131
     atom    4 type  1   force =    -0.01227865    0.02119120    0.03584887
     atom    5 type  2   force =     0.00554898    0.01921499   -0.01686123
     atom    6 type  2   force =     0.02748103   -0.03268346   -0.01986706
     atom    7 type  2   force =     0.00081240   -0.01007088   -0.00377243
     atom    8 type  2   force =    -0.02708276   -0.01833686    0.02685234

     Total force =     0.088592     Total SCF correction =     0.003122

     Entering Dynamics:    iteration =  2004
                           time      =   2.0040 pico-seconds


ATOMIC_POSITIONS (crystal)
Ga       0.018106556  -0.019421352   0.017374786
Ga      -0.018035835   0.506483631   0.520587606
Ga       0.504969536   0.021898283   0.488657073
Ga       0.497190545   0.481856604  -0.029771731
As       0.237654018   0.257154598   0.259592937
As       0.726323849   0.754263017   0.252741671
As       0.764524440   0.235700045   0.761464206
As       0.269421684   0.761427960   0.729134720


     kinetic energy (Ekin) =     0.03427826 Ry
     temperature           =   515.43833793 K 
     Ekin + Etot (const)   =  -764.03832855 Ry

     Linear momentum :   -0.0000000000   -0.0000000000    0.0000000000

     Writing output data file x.save

     second order wave-functions extrapolation
     second order charge density extrapolation

     total cpu time spent up to now is     5534.1 secs

     per-process dynamical memory:    87.0 Mb

     Self-consistent Calculation

     iteration #  1     ecut=    50.00 Ry     beta=0.45
     Davidson diagonalization with overlap
     ethr =  1.00E-06,  avg # of iterations =  2.0

     Threshold (ethr) on eigenvalues was too large:
     Diagonalizing with lowered threshold

     Davidson diagonalization with overlap
     ethr =  7.29E-08,  avg # of iterations =  1.4

     total cpu time spent up to now is     5535.4 secs

     total energy              =    -764.07258371 Ry
     Harris-Foulkes estimate   =    -764.07261770 Ry
     estimated scf accuracy    <       0.00005362 Ry

     iteration #  2     ecut=    50.00 Ry     beta=0.45
     Davidson diagonalization with overlap
     ethr =  7.45E-08,  avg # of iterations =  2.4

     total cpu time spent up to now is     5536.1 secs

     total energy              =    -764.07260017 Ry
     Harris-Foulkes estimate   =    -764.07260624 Ry
     estimated scf accuracy    <       0.00001301 Ry

     iteration #  3     ecut=    50.00 Ry     beta=0.45
     Davidson diagonalization with overlap
     ethr =  1.81E-08,  avg # of iterations =  2.0

     total cpu time spent up to now is     5536.7 secs

     End of self-consistent calculation

          k = 0.0000 0.0000 0.0000 (  7689 PWs)   bands (ev):

    -8.6786  -8.6736  -8.6630  -8.5760  -8.5683  -8.5612  -8.5556  -8.5526
    -8.5305  -8.5250  -8.5133  -8.5066  -8.5057  -8.5015  -8.4962  -8.4850
    -8.4823  -8.4819  -8.4677  -8.4598  -6.1977  -4.0332  -3.8939  -3.8032
    -0.5614  -0.3376  -0.2866   3.6031   3.6063   3.6191   3.6871   3.7591
     3.8268   6.0679   6.1719   6.2228   6.3311   7.4487   7.5976   7.6893
     7.7183   7.8468   8.0997

          k = 0.0000 0.0000 0.0580 (  7696 PWs)   bands (ev):

    -8.6745  -8.6626  -8.6556  -8.5869  -8.5704  -8.5576  -8.5526  -8.5503
    -8.5344  -8.5289  -8.5199  -8.5125  -8.5046  -8.5027  -8.4954  -8.4915
    -8.4832  -8.4808  -8.4692  -8.4619  -5.8133  -4.7481  -3.9552  -3.7852
    -0.3829  -0.1776   0.9416   2.9893   3.0305   3.1415   3.2258   3.5321
     4.0984   4.1222   5.2146   5.3090   7.7701   8.5089   8.6903   9.0402
     9.1332   9.3111   9.6284

          k = 0.0000 0.0580 0.0000 (  7696 PWs)   bands (ev):

    -8.6708  -8.6659  -8.6539  -8.5923  -8.5669  -8.5587  -8.5533  -8.5511
    -8.5357  -8.5271  -8.5196  -8.5089  -8.5053  -8.5027  -8.4968  -8.4919
    -8.4821  -8.4797  -8.4702  -8.4624  -5.8121  -4.7606  -3.9334  -3.7906
    -0.4077  -0.1667   0.9490   2.9475   3.0534   3.1201   3.2160   3.5558
     4.1006   4.1502   5.2422   5.3233   7.6963   8.4066   8.6473   8.9539
     9.2995   9.4509   9.6483

          k = 0.0000 0.0580 0.0580 (  7635 PWs)   bands (ev):

    -8.6690  -8.6595  -8.6497  -8.5971  -8.5668  -8.5573  -8.5531  -8.5500
    -8.5400  -8.5294  -8.5228  -8.5146  -8.5099  -8.4997  -8.4981  -8.4926
    -8.4829  -8.4791  -8.4703  -8.4624  -5.4631  -4.5807  -4.4919  -4.0418
    -0.0891   0.4978   0.5734   2.0999   2.4781   3.1233   3.1992   4.0823
     4.2921   4.4134   4.4250   5.7173   8.2992   8.5160   9.2937   9.5347
     9.8278   9.9104  10.5699

          k = 0.0000 0.0580-0.0580 (  7635 PWs)   bands (ev):

    -8.6675  -8.6615  -8.6498  -8.5951  -8.5686  -8.5567  -8.5527  -8.5517
    -8.5410  -8.5279  -8.5215  -8.5161  -8.5079  -8.5000  -8.4992  -8.4924
    -8.4830  -8.4787  -8.4703  -8.4625  -5.4626  -4.6069  -4.4619  -4.0450
    -0.0889   0.4434   0.6324   2.0641   2.4761   3.1178   3.2676   4.0878
     4.2291   4.4250   4.4415   5.7248   8.2790   8.5523   9.3557   9.4452
     9.7785   9.8703  10.5665

          k = 0.0580 0.0000 0.0000 (  7696 PWs)   bands (ev):

    -8.6729  -8.6679  -8.6525  -8.5861  -8.5651  -8.5613  -8.5548  -8.5497
    -8.5334  -8.5284  -8.5210  -8.5174  -8.5048  -8.5006  -8.4936  -8.4871
    -8.4859  -8.4832  -8.4683  -8.4612  -5.8084  -4.7715  -3.8754  -3.8459
    -0.3425  -0.2076   0.9250   2.9693   3.0431   3.0905   3.2089   3.5359
     4.1356   4.1745   5.2568   5.2851   7.7346   8.4722   8.6767   8.9431
     9.3256   9.4455   9.5698

          k = 0.0580 0.0000 0.0580 (  7635 PWs)   bands (ev):

    -8.6699  -8.6590  -8.6483  -8.5976  -8.5655  -8.5564  -8.5542  -8.5482
    -8.5399  -8.5331  -8.5249  -8.5198  -8.5052  -8.4990  -8.4965  -8.4904
    -8.4845  -8.4802  -8.4695  -8.4624  -5.4639  -4.6287  -4.4094  -4.0751
    -0.0297   0.3958   0.5576   2.1015   2.5269   3.1259   3.2534   4.1174
     4.2634   4.3512   4.5190   5.6706   8.1956   8.4438   9.3552   9.5240
     9.7529   9.8853  10.5159

          k = 0.0580 0.0000-0.0580 (  7635 PWs)   bands (ev):

    -8.6689  -8.6595  -8.6503  -8.5944  -8.5649  -8.5576  -8.5543  -8.5488
    -8.5407  -8.5326  -8.5246  -8.5188  -8.5059  -8.4990  -8.4962  -8.4906
    -8.4845  -8.4807  -8.4694  -8.4624  -5.4559  -4.6023  -4.4852  -4.0368
    -0.1212   0.4807   0.6856   2.0426   2.4538   3.1158   3.2376   4.0744
     4.2601   4.3734   4.4248   5.7821   8.3302   8.5577   9.3225   9.5576
     9.7687   9.9844  10.5180

          k = 0.0580 0.0580 0.0000 (  7635 PWs)   bands (ev):

    -8.6668  -8.6621  -8.6496  -8.5968  -8.5668  -8.5547  -8.5532  -8.5484
    -8.5414  -8.5310  -8.5232  -8.5188  -8.5093  -8.4997  -8.4969  -8.4887
    -8.4839  -8.4805  -8.4700  -8.4624  -5.4605  -4.6556  -4.3964  -4.0616
    -0.0607   0.3682   0.6291   2.0921   2.5387   3.1126   3.2511   4.0688
     4.2851   4.3582   4.5050   5.6494   8.3249   8.5206   9.2133   9.6236
     9.7546   9.8868  10.5902

          k = 0.0580 0.0580 0.0580 (  7661 PWs)   bands (ev):

    -8.6668  -8.6576  -8.6486  -8.6048  -8.5635  -8.5563  -8.5556  -8.5518
    -8.5414  -8.5353  -8.5275  -8.5188  -8.5064  -8.5030  -8.4964  -8.4881
    -8.4825  -8.4770  -8.4695  -8.4614  -5.1722  -4.6163  -4.4215  -4.2951
    -0.0997  -0.0205   0.0788   1.0417   3.6107   3.7129   3.8469   4.5647
     4.6124   4.7823   5.2984   5.3691   7.1409   8.1945   8.2841   8.5394
    10.2537  10.4602  10.6108

          k = 0.0580 0.0580-0.0580 (  7661 PWs)   bands (ev):

    -8.6643  -8.6613  -8.6497  -8.5993  -8.5675  -8.5568  -8.5547  -8.5505
    -8.5468  -8.5301  -8.5275  -8.5173  -8.5099  -8.5021  -8.4962  -8.4872
    -8.4824  -8.4779  -8.4694  -8.4617  -5.1657  -4.5843  -4.4603  -4.3064
    -0.1155   0.0425   0.1490   0.9539   3.5179   3.6852   3.8077   4.6088
     4.6822   4.6974   5.2947   5.4438   7.2207   8.2826   8.3397   8.4471
    10.2698  10.4726  10.6504

          k = 0.0580-0.0580 0.0000 (  7635 PWs)   bands (ev):

    -8.6682  -8.6625  -8.6470  -8.5952  -8.5682  -8.5577  -8.5551  -8.5492
    -8.5384  -8.5283  -8.5250  -8.5173  -8.5096  -8.4995  -8.4974  -8.4884
    -8.4843  -8.4807  -8.4700  -8.4624  -5.4577  -4.6418  -4.4319  -4.0441
    -0.1075   0.3777   0.7440   2.0280   2.4787   3.1236   3.2844   4.1278
     4.1938   4.3875   4.4125   5.7619   8.2539   8.6356   9.2329   9.5936
     9.7766   9.8901  10.6214

          k = 0.0580-0.0580 0.0580 (  7661 PWs)   bands (ev):

    -8.6665  -8.6609  -8.6459  -8.6008  -8.5698  -8.5581  -8.5564  -8.5493
    -8.5434  -8.5316  -8.5276  -8.5168  -8.5066  -8.5040  -8.4964  -8.4877
    -8.4827  -8.4768  -8.4696  -8.4617  -5.1730  -4.5898  -4.4309  -4.3167
    -0.0938  -0.0619   0.1757   0.9927   3.5604   3.7236   3.8037   4.5895
     4.6528   4.7090   5.3197   5.4444   7.1631   8.2403   8.3296   8.4146
    10.3023  10.4668  10.5890

          k = 0.0580-0.0580-0.0580 (  7661 PWs)   bands (ev):

    -8.6675  -8.6584  -8.6484  -8.5992  -8.5676  -8.5591  -8.5539  -8.5505
    -8.5463  -8.5320  -8.5250  -8.5184  -8.5094  -8.5018  -8.4962  -8.4871
    -8.4828  -8.4782  -8.4695  -8.4615  -5.1651  -4.5669  -4.4286  -4.3633
    -0.0979   0.0442   0.1927   0.9134   3.5309   3.6533   3.7153   4.6360
     4.6837   4.7004   5.3610   5.4381   7.2293   8.2843   8.3675   8.4247
    10.2888  10.5628  10.6997

     the Fermi energy is     6.2784 ev

!    total energy              =    -764.07260276 Ry
     Harris-Foulkes estimate   =    -764.07260276 Ry
     estimated scf accuracy    <          8.9E-09 Ry

     convergence has been achieved in   3 iterations

     Forces acting on atoms (Ry/au):

     atom    1 type  1   force =    -0.00719361   -0.00696579   -0.00348599
     atom    2 type  1   force =     0.00864448    0.01795017   -0.02543023
     atom    3 type  1   force =     0.00269643    0.00606124    0.00513639
     atom    4 type  1   force =    -0.01281653    0.02119839    0.03728144
     atom    5 type  2   force =     0.00567364    0.02030051   -0.01685894
     atom    6 type  2   force =     0.02785884   -0.03094386   -0.01994803
     atom    7 type  2   force =     0.00163626   -0.01094002   -0.00252301
     atom    8 type  2   force =    -0.02649950   -0.01666065    0.02582837

     Total force =     0.088689     Total SCF correction =     0.000215

     Entering Dynamics:    iteration =  2005
                           time      =   2.0050 pico-seconds


     Andersen thermostat:    1 collisions

ATOMIC_POSITIONS (crystal)
Ga       0.018066022  -0.019026389   0.017394459
Ga      -0.017610480   0.506088771   0.521191506
Ga       0.504759683   0.022578184   0.488760058
Ga       0.497543962   0.482187797  -0.030474697
As       0.237592378   0.257005287   0.259234344
As       0.726211393   0.753481068   0.253177359
As       0.764259078   0.235787032   0.761004529
As       0.269369423   0.761331206   0.729495349


     kinetic energy (Ekin) =     0.03182305 Ry
     temperature           =   478.51958720 K 
     Ekin + Etot (const)   =  -764.04077971 Ry
     Message from routine dynamics:
     Total linear momentum <> 0

     Linear momentum :    2.6357994363    1.7636786515   -1.2514872447

     Writing output data file x.save

     second order wave-functions extrapolation
     second order charge density extrapolation

     total cpu time spent up to now is     5537.4 secs

     per-process dynamical memory:    87.0 Mb

     Self-consistent Calculation

     iteration #  1     ecut=    50.00 Ry     beta=0.45
     Davidson diagonalization with overlap
     ethr =  1.00E-06,  avg # of iterations =  2.3

     total cpu time spent up to now is     5538.2 secs

     total energy              =    -764.07236932 Ry
     Harris-Foulkes estimate   =    -764.07244543 Ry
     estimated scf accuracy    <       0.00012011 Ry

     iteration #  2     ecut=    50.00 Ry     beta=0.45
     Davidson diagonalization with overlap
     ethr =  1.67E-07,  avg # of iterations =  2.7

     total cpu time spent up to now is     5538.9 secs

     total energy              =    -764.07240697 Ry
     Harris-Foulkes estimate   =    -764.07242034 Ry
     estimated scf accuracy    <       0.00002865 Ry

     iteration #  3     ecut=    50.00 Ry     beta=0.45
     Davidson diagonalization with overlap
     ethr =  3.98E-08,  avg # of iterations =  2.1

     total cpu time spent up to now is     5539.5 secs

     End of self-consistent calculation

          k = 0.0000 0.0000 0.0000 (  7689 PWs)   bands (ev):

    -8.6807  -8.6734  -8.6626  -8.5776  -8.5701  -8.5618  -8.5556  -8.5526
    -8.5327  -8.5263  -8.5134  -8.5085  -8.5075  -8.5013  -8.4985  -8.4847
    -8.4836  -8.4832  -8.4667  -8.4590  -6.1986  -4.0405  -3.8961  -3.7937
    -0.5602  -0.3373  -0.2899   3.6019   3.6060   3.6156   3.6833   3.7597
     3.8312   6.0705   6.1796   6.2171   6.3302   7.4420   7.5994   7.6906
     7.7214   7.8445   8.0993

          k = 0.0000 0.0000 0.0580 (  7696 PWs)   bands (ev):

    -8.6758  -8.6627  -8.6557  -8.5884  -8.5722  -8.5580  -8.5527  -8.5506
    -8.5366  -8.5298  -8.5211  -8.5134  -8.5052  -8.5043  -8.4978  -8.4910
    -8.4847  -8.4822  -8.4681  -8.4609  -5.8150  -4.7475  -3.9617  -3.7784
    -0.3838  -0.1786   0.9412   2.9881   3.0314   3.1384   3.2269   3.5359
     4.0965   4.1191   5.2156   5.3106   7.7684   8.5084   8.6894   9.0472
     9.1295   9.3126   9.6205

          k = 0.0000 0.0580 0.0000 (  7696 PWs)   bands (ev):

    -8.6727  -8.6657  -8.6534  -8.5944  -8.5685  -8.5595  -8.5532  -8.5511
    -8.5381  -8.5282  -8.5199  -8.5096  -8.5068  -8.5043  -8.4987  -8.4913
    -8.4838  -8.4813  -8.4690  -8.4613  -5.8132  -4.7618  -3.9388  -3.7838
    -0.4037  -0.1708   0.9471   2.9449   3.0527   3.1163   3.2149   3.5603
     4.1015   4.1498   5.2481   5.3210   7.6962   8.4080   8.6391   8.9550
     9.3051   9.4511   9.6545

          k = 0.0000 0.0580 0.0580 (  7635 PWs)   bands (ev):

    -8.6698  -8.6600  -8.6496  -8.5987  -8.5685  -8.5580  -8.5533  -8.5504
    -8.5419  -8.5305  -8.5237  -8.5158  -8.5100  -8.5020  -8.4984  -8.4940
    -8.4845  -8.4805  -8.4691  -8.4612  -5.4648  -4.5817  -4.4947  -4.0372
    -0.0912   0.5001   0.5739   2.0964   2.4769   3.1222   3.1991   4.0779
     4.2903   4.4124   4.4299   5.7204   8.3023   8.5202   9.2948   9.5348
     9.8298   9.9112  10.5691

          k = 0.0000 0.0580-0.0580 (  7635 PWs)   bands (ev):

    -8.6687  -8.6614  -8.6500  -8.5970  -8.5701  -8.5576  -8.5530  -8.5520
    -8.5422  -8.5294  -8.5223  -8.5175  -8.5079  -8.5022  -8.4995  -8.4940
    -8.4846  -8.4801  -8.4690  -8.4613  -5.4649  -4.6067  -4.4638  -4.0418
    -0.0869   0.4414   0.6273   2.0635   2.4772   3.1195   3.2671   4.0884
     4.2294   4.4245   4.4453   5.7216   8.2758   8.5526   9.3559   9.4435
     9.7784   9.8680  10.5631

          k = 0.0580 0.0000 0.0000 (  7696 PWs)   bands (ev):

    -8.6743  -8.6677  -8.6528  -8.5870  -8.5668  -8.5626  -8.5547  -8.5498
    -8.5352  -8.5302  -8.5224  -8.5174  -8.5049  -8.5029  -8.4959  -8.4878
    -8.4867  -8.4842  -8.4673  -8.4602  -5.8095  -4.7739  -3.8727  -3.8459
    -0.3434  -0.2071   0.9231   2.9693   3.0410   3.0877   3.2071   3.5388
     4.1362   4.1758   5.2567   5.2852   7.7360   8.4742   8.6772   8.9457
     9.3288   9.4397   9.5697

          k = 0.0580 0.0000 0.0580 (  7635 PWs)   bands (ev):

    -8.6714  -8.6584  -8.6489  -8.5987  -8.5673  -8.5569  -8.5546  -8.5489
    -8.5411  -8.5349  -8.5254  -8.5211  -8.5051  -8.5014  -8.4971  -8.4918
    -8.4859  -8.4816  -8.4683  -8.4613  -5.4653  -4.6342  -4.4077  -4.0710
    -0.0355   0.4040   0.5600   2.0919   2.5257   3.1273   3.2513   4.1088
     4.2624   4.3546   4.5204   5.6789   8.2030   8.4437   9.3620   9.5209
     9.7504   9.8896  10.5193

          k = 0.0580 0.0000-0.0580 (  7635 PWs)   bands (ev):

    -8.6701  -8.6596  -8.6503  -8.5959  -8.5668  -8.5583  -8.5543  -8.5490
    -8.5424  -8.5342  -8.5261  -8.5194  -8.5057  -8.5014  -8.4966  -8.4920
    -8.4859  -8.4822  -8.4683  -8.4613  -5.4586  -4.6051  -4.4815  -4.0358
    -0.1168   0.4753   0.6770   2.0482   2.4558   3.1185   3.2343   4.0759
     4.2629   4.3715   4.4281   5.7768   8.3225   8.5553   9.3278   9.5530
     9.7632   9.9888  10.5132

          k = 0.0580 0.0580 0.0000 (  7635 PWs)   bands (ev):

    -8.6678  -8.6621  -8.6500  -8.5982  -8.5686  -8.5547  -8.5541  -8.5490
    -8.5429  -8.5328  -8.5233  -8.5201  -8.5095  -8.5017  -8.4984  -8.4893
    -8.4853  -8.4820  -8.4688  -8.4613  -5.4620  -4.6602  -4.3944  -4.0586
    -0.0609   0.3706   0.6246   2.0871   2.5430   3.1130   3.2522   4.0623
     4.2853   4.3559   4.5112   5.6503   8.3233   8.5230   9.2182   9.6194
     9.7490   9.8927  10.5886

          k = 0.0580 0.0580 0.0580 (  7661 PWs)   bands (ev):

    -8.6679  -8.6574  -8.6491  -8.6059  -8.5655  -8.5569  -8.5560  -8.5530
    -8.5424  -8.5366  -8.5280  -8.5204  -8.5062  -8.5034  -8.4987  -8.4899
    -8.4839  -8.4783  -8.4682  -8.4603  -5.1735  -4.6225  -4.4240  -4.2869
    -0.0992  -0.0148   0.0796   1.0347   3.6015   3.7036   3.8463   4.5666
     4.6140   4.7879   5.3013   5.3712   7.1462   8.1933   8.2886   8.5417
    10.2593  10.4622  10.6124

          k = 0.0580 0.0580-0.0580 (  7661 PWs)   bands (ev):

    -8.6657  -8.6610  -8.6499  -8.6009  -8.5693  -8.5576  -8.5547  -8.5511
    -8.5480  -8.5321  -8.5283  -8.5184  -8.5097  -8.5022  -8.4985  -8.4889
    -8.4838  -8.4793  -8.4681  -8.4605  -5.1695  -4.5887  -4.4609  -4.2976
    -0.1184   0.0380   0.1452   0.9605   3.5187   3.6899   3.8176   4.6006
     4.6771   4.6976   5.2979   5.4404   7.2157   8.2806   8.3411   8.4468
    10.2679  10.4687  10.6455

          k = 0.0580-0.0580 0.0000 (  7635 PWs)   bands (ev):

    -8.6689  -8.6631  -8.6471  -8.5964  -8.5701  -8.5589  -8.5551  -8.5494
    -8.5402  -8.5295  -8.5253  -8.5191  -8.5094  -8.5014  -8.4987  -8.4892
    -8.4858  -8.4821  -8.4688  -8.4613  -5.4593  -4.6475  -4.4278  -4.0418
    -0.1067   0.3706   0.7481   2.0256   2.4799   3.1237   3.2860   4.1302
     4.1874   4.3894   4.4127   5.7628   8.2492   8.6395   9.2319   9.5928
     9.7716   9.8968  10.6214

          k = 0.0580-0.0580 0.0580 (  7661 PWs)   bands (ev):

    -8.6679  -8.6604  -8.6463  -8.6020  -8.5717  -8.5591  -8.5564  -8.5502
    -8.5442  -8.5334  -8.5282  -8.5184  -8.5064  -8.5041  -8.4988  -8.4895
    -8.4842  -8.4780  -8.4683  -8.4605  -5.1756  -4.5950  -4.4327  -4.3083
    -0.0926  -0.0644   0.1772   0.9906   3.5554   3.7181   3.8093   4.5851
     4.6513   4.7140   5.3236   5.4456   7.1655   8.2441   8.3258   8.4106
    10.3053  10.4688  10.5895

          k = 0.0580-0.0580-0.0580 (  7661 PWs)   bands (ev):

    -8.6682  -8.6593  -8.6481  -8.6006  -8.5696  -8.5600  -8.5537  -8.5508
    -8.5480  -8.5333  -8.5259  -8.5200  -8.5092  -8.5017  -8.4985  -8.4888
    -8.4842  -8.4795  -8.4682  -8.4603  -5.1686  -4.5722  -4.4295  -4.3543
    -0.1043   0.0448   0.1926   0.9165   3.5294   3.6579   3.7191   4.6310
     4.6775   4.6987   5.3679   5.4367   7.2272   8.2914   8.3618   8.4226
    10.2916  10.5605  10.6998

     the Fermi energy is     6.2764 ev

!    total energy              =    -764.07241274 Ry
     Harris-Foulkes estimate   =    -764.07241275 Ry
     estimated scf accuracy    <       0.00000004 Ry

     convergence has been achieved in   3 iterations

     Forces acting on atoms (Ry/au):

     atom    1 type  1   force =    -0.00839738   -0.00837962   -0.00316878
     atom    2 type  1   force =     0.00867195    0.01876109   -0.02653764
     atom    3 type  1   force =     0.00306688    0.00367937    0.00385942
     atom    4 type  1   force =    -0.01325071    0.02097702    0.03870322
     atom    5 type  2   force =     0.00597050    0.02135233   -0.01662785
     atom    6 type  2   force =     0.02799321   -0.02917036   -0.01977169
     atom    7 type  2   force =     0.00228796   -0.01176198   -0.00142203
     atom    8 type  2   force =    -0.02634241   -0.01545785    0.02496534

     Total force =     0.089044     Total SCF correction =     0.000573

     Entering Dynamics:    iteration =  2006
                           time      =   2.0060 pico-seconds


ATOMIC_POSITIONS (crystal)
Ga       0.018020293  -0.018636611   0.017412172
Ga      -0.017179761   0.505705519   0.521778987
Ga       0.504551728   0.023260361   0.488865430
Ga       0.497889180   0.482531968  -0.031153718
As       0.237534176   0.256868269   0.258866177
As       0.726115055   0.752682324   0.253601663
As       0.763995033   0.235867246   0.760544033
As       0.269301995   0.761225553   0.729870351


     kinetic energy (Ekin) =     0.03159401 Ry
     temperature           =   475.07552638 K 
     Ekin + Etot (const)   =  -764.04081873 Ry

     Linear momentum :   -0.0000000000    0.0000000000   -0.0000000000

     Writing output data file x.save

     second order wave-functions extrapolation
     second order charge density extrapolation

     total cpu time spent up to now is     5540.2 secs

     per-process dynamical memory:    87.0 Mb

     Self-consistent Calculation

     iteration #  1     ecut=    50.00 Ry     beta=0.45
     Davidson diagonalization with overlap
     ethr =  1.00E-06,  avg # of iterations =  2.0

     Threshold (ethr) on eigenvalues was too large:
     Diagonalizing with lowered threshold

     Davidson diagonalization with overlap
     ethr =  5.25E-11,  avg # of iterations =  3.8

     total cpu time spent up to now is     5542.0 secs

     End of self-consistent calculation

          k = 0.0000 0.0000 0.0000 (  7689 PWs)   bands (ev):

    -8.6827  -8.6730  -8.6619  -8.5787  -8.5713  -8.5623  -8.5554  -8.5526
    -8.5341  -8.5272  -8.5136  -8.5097  -8.5087  -8.5015  -8.5000  -8.4851
    -8.4845  -8.4834  -8.4663  -8.4587  -6.1996  -4.0475  -3.8983  -3.7844
    -0.5586  -0.3374  -0.2933   3.6001   3.6041   3.6146   3.6796   3.7604
     3.8354   6.0732   6.1874   6.2114   6.3294   7.4348   7.6011   7.6911
     7.7251   7.8428   8.0989

          k = 0.0000 0.0000 0.0580 (  7696 PWs)   bands (ev):

    -8.6772  -8.6625  -8.6553  -8.5895  -8.5736  -8.5581  -8.5527  -8.5507
    -8.5380  -8.5306  -8.5220  -8.5139  -8.5066  -8.5045  -8.4993  -8.4909
    -8.4856  -8.4830  -8.4676  -8.4604  -5.8168  -4.7469  -3.9681  -3.7718
    -0.3844  -0.1800   0.9407   2.9867   3.0320   3.1354   3.2281   3.5398
     4.0945   4.1160   5.2169   5.3123   7.7665   8.5080   8.6881   9.0541
     9.1260   9.3146   9.6126

          k = 0.0000 0.0580 0.0000 (  7696 PWs)   bands (ev):

    -8.6746  -8.6651  -8.6528  -8.5957  -8.5697  -8.5601  -8.5530  -8.5510
    -8.5397  -8.5292  -8.5202  -8.5105  -8.5079  -8.5052  -8.4998  -8.4909
    -8.4848  -8.4824  -8.4685  -8.4608  -5.8145  -4.7630  -3.9441  -3.7772
    -0.3999  -0.1748   0.9451   2.9423   3.0518   3.1126   3.2139   3.5649
     4.1015   4.1500   5.2539   5.3187   7.6960   8.4095   8.6310   8.9562
     9.3104   9.4515   9.6606

          k = 0.0000 0.0580 0.0580 (  7635 PWs)   bands (ev):

    -8.6710  -8.6600  -8.6493  -8.5998  -8.5698  -8.5586  -8.5533  -8.5505
    -8.5432  -8.5313  -8.5242  -8.5167  -8.5102  -8.5035  -8.4989  -8.4946
    -8.4854  -8.4814  -8.4685  -8.4607  -5.4667  -4.5826  -4.4975  -4.0326
    -0.0933   0.5022   0.5745   2.0928   2.4757   3.1211   3.1991   4.0738
     4.2882   4.4112   4.4350   5.7234   8.3052   8.5241   9.2959   9.5350
     9.8317   9.9121  10.5681

          k = 0.0000 0.0580-0.0580 (  7635 PWs)   bands (ev):

    -8.6703  -8.6606  -8.6500  -8.5983  -8.5713  -8.5582  -8.5533  -8.5520
    -8.5431  -8.5303  -8.5230  -8.5183  -8.5081  -8.5037  -8.4998  -8.4947
    -8.4855  -8.4810  -8.4684  -8.4608  -5.4674  -4.6064  -4.4659  -4.0384
    -0.0851   0.4397   0.6218   2.0627   2.4783   3.1213   3.2663   4.0889
     4.2298   4.4233   4.4498   5.7185   8.2726   8.5528   9.3560   9.4418
     9.7784   9.8658  10.5595

          k = 0.0580 0.0000 0.0000 (  7696 PWs)   bands (ev):

    -8.6759  -8.6671  -8.6529  -8.5878  -8.5679  -8.5635  -8.5545  -8.5498
    -8.5364  -8.5315  -8.5235  -8.5173  -8.5053  -8.5041  -8.4972  -8.4886
    -8.4871  -8.4846  -8.4669  -8.4598  -5.8107  -4.7763  -3.8707  -3.8452
    -0.3439  -0.2070   0.9212   2.9692   3.0386   3.0849   3.2054   3.5420
     4.1367   4.1773   5.2564   5.2857   7.7374   8.4762   8.6773   8.9484
     9.3321   9.4336   9.5699

          k = 0.0580 0.0000 0.0580 (  7635 PWs)   bands (ev):

    -8.6728  -8.6577  -8.6490  -8.5996  -8.5686  -8.5574  -8.5547  -8.5494
    -8.5419  -8.5361  -8.5258  -8.5219  -8.5051  -8.5029  -8.4978  -8.4924
    -8.4868  -8.4825  -8.4678  -8.4608  -5.4668  -4.6395  -4.4063  -4.0666
    -0.0414   0.4121   0.5627   2.0822   2.5242   3.1289   3.2491   4.1004
     4.2612   4.3579   4.5218   5.6874   8.2101   8.4442   9.3688   9.5176
     9.7481   9.8939  10.5227

          k = 0.0580 0.0000-0.0580 (  7635 PWs)   bands (ev):

    -8.6716  -8.6594  -8.6500  -8.5969  -8.5682  -8.5589  -8.5541  -8.5492
    -8.5435  -8.5353  -8.5272  -8.5199  -8.5058  -8.5029  -8.4973  -8.4926
    -8.4867  -8.4831  -8.4677  -8.4608  -5.4614  -4.6082  -4.4776  -4.0347
    -0.1123   0.4693   0.6686   2.0538   2.4580   3.1213   3.2310   4.0771
     4.2658   4.3692   4.4321   5.7714   8.3145   8.5528   9.3330   9.5481
     9.7577   9.9930  10.5089

          k = 0.0580 0.0580 0.0000 (  7635 PWs)   bands (ev):

    -8.6693  -8.6614  -8.6501  -8.5991  -8.5699  -8.5551  -8.5542  -8.5493
    -8.5438  -8.5340  -8.5237  -8.5208  -8.5098  -8.5030  -8.4994  -8.4895
    -8.4862  -8.4830  -8.4682  -8.4608  -5.4635  -4.6647  -4.3925  -4.0554
    -0.0612   0.3730   0.6205   2.0818   2.5472   3.1133   3.2532   4.0560
     4.2855   4.3537   4.5171   5.6513   8.3215   8.5256   9.2230   9.6151
     9.7433   9.8986  10.5868

          k = 0.0580 0.0580 0.0580 (  7661 PWs)   bands (ev):

    -8.6692  -8.6570  -8.6491  -8.6066  -8.5669  -8.5576  -8.5559  -8.5536
    -8.5432  -8.5374  -8.5283  -8.5215  -8.5063  -8.5038  -8.5001  -8.4909
    -8.4848  -8.4791  -8.4676  -8.4598  -5.1750  -4.6283  -4.4266  -4.2788
    -0.0998  -0.0081   0.0806   1.0276   3.5921   3.6943   3.8456   4.5684
     4.6156   4.7933   5.3041   5.3738   7.1516   8.1921   8.2931   8.5438
    10.2652  10.4642  10.6140

          k = 0.0580 0.0580-0.0580 (  7661 PWs)   bands (ev):

    -8.6677  -8.6598  -8.6499  -8.6020  -8.5707  -8.5583  -8.5545  -8.5515
    -8.5487  -8.5335  -8.5290  -8.5192  -8.5098  -8.5025  -8.4998  -8.4898
    -8.4847  -8.4801  -8.4675  -8.4599  -5.1734  -4.5931  -4.4615  -4.2887
    -0.1220   0.0336   0.1418   0.9670   3.5192   3.6948   3.8274   4.5926
     4.6720   4.6978   5.3014   5.4369   7.2106   8.2779   8.3431   8.4465
    10.2658  10.4649  10.6401

          k = 0.0580-0.0580 0.0000 (  7635 PWs)   bands (ev):

    -8.6702  -8.6628  -8.6470  -8.5973  -8.5715  -8.5598  -8.5550  -8.5494
    -8.5413  -8.5305  -8.5255  -8.5202  -8.5095  -8.5027  -8.4996  -8.4896
    -8.4867  -8.4831  -8.4683  -8.4608  -5.4609  -4.6531  -4.4239  -4.0394
    -0.1058   0.3639   0.7515   2.0232   2.4813   3.1240   3.2875   4.1320
     4.1817   4.3899   4.4143   5.7636   8.2444   8.6430   9.2312   9.5911
     9.7670   9.9038  10.6212

          k = 0.0580-0.0580 0.0580 (  7661 PWs)   bands (ev):

    -8.6695  -8.6595  -8.6465  -8.6029  -8.5731  -8.5600  -8.5564  -8.5507
    -8.5447  -8.5345  -8.5286  -8.5195  -8.5065  -8.5042  -8.5002  -8.4905
    -8.4851  -8.4788  -8.4677  -8.4600  -5.1782  -4.6000  -4.4346  -4.2998
    -0.0936  -0.0648   0.1787   0.9885   3.5506   3.7124   3.8147   4.5807
     4.6493   4.7197   5.3268   5.4476   7.1679   8.2479   8.3221   8.4066
    10.3084  10.4704  10.5902

          k = 0.0580-0.0580-0.0580 (  7661 PWs)   bands (ev):

    -8.6692  -8.6595  -8.6476  -8.6016  -8.5710  -8.5606  -8.5534  -8.5512
    -8.5491  -8.5342  -8.5266  -8.5211  -8.5093  -8.5018  -8.5000  -8.4897
    -8.4851  -8.4804  -8.4676  -8.4599  -5.1722  -4.5774  -4.4307  -4.3448
    -0.1110   0.0451   0.1926   0.9199   3.5278   3.6627   3.7232   4.6260
     4.6705   4.6979   5.3740   5.4358   7.2249   8.2984   8.3560   8.4203
    10.2940  10.5579  10.6989

     the Fermi energy is     6.2748 ev

!    total energy              =    -764.07219654 Ry
     Harris-Foulkes estimate   =    -764.07219657 Ry
     estimated scf accuracy    <       0.00000005 Ry

     convergence has been achieved in   1 iterations

     Forces acting on atoms (Ry/au):

     atom    1 type  1   force =    -0.00939633   -0.01002602   -0.00262399
     atom    2 type  1   force =     0.00878925    0.01931233   -0.02807178
     atom    3 type  1   force =     0.00262959    0.00124426    0.00307398
     atom    4 type  1   force =    -0.01325925    0.02078608    0.03989658
     atom    5 type  2   force =     0.00628259    0.02249331   -0.01640610
     atom    6 type  2   force =     0.02810064   -0.02724595   -0.01959637
     atom    7 type  2   force =     0.00297615   -0.01243680   -0.00032288
     atom    8 type  2   force =    -0.02612263   -0.01412721    0.02405056

     Total force =     0.089477     Total SCF correction =     0.000702

     Entering Dynamics:    iteration =  2007
                           time      =   2.0070 pico-seconds


ATOMIC_POSITIONS (crystal)
Ga       0.017968750  -0.018253036   0.017428261
Ga      -0.016743603   0.505334215   0.522349101
Ga       0.504345400   0.023943308   0.488972705
Ga       0.498226196   0.482889000  -0.031808056
As       0.237479590   0.256744202   0.258488564
As       0.726034895   0.751867893   0.254014685
As       0.763732702   0.235940300   0.760083351
As       0.269219527   0.761111765   0.730259200


     kinetic energy (Ekin) =     0.03137701 Ry
     temperature           =   471.81263733 K 
     Ekin + Etot (const)   =  -764.04081953 Ry

     Linear momentum :   -0.0000000000    0.0000000000   -0.0000000000

     Writing output data file x.save

     second order wave-functions extrapolation
     second order charge density extrapolation

     total cpu time spent up to now is     5542.7 secs

     per-process dynamical memory:    87.0 Mb

     Self-consistent Calculation

     iteration #  1     ecut=    50.00 Ry     beta=0.45
     Davidson diagonalization with overlap
     ethr =  1.00E-06,  avg # of iterations =  2.0

     Threshold (ethr) on eigenvalues was too large:
     Diagonalizing with lowered threshold

     Davidson diagonalization with overlap
     ethr =  2.13E-09,  avg # of iterations =  2.3

     total cpu time spent up to now is     5544.1 secs

     End of self-consistent calculation

          k = 0.0000 0.0000 0.0000 (  7689 PWs)   bands (ev):

    -8.6869  -8.6744  -8.6626  -8.5827  -8.5755  -8.5640  -8.5570  -8.5543
    -8.5395  -8.5303  -8.5164  -8.5146  -8.5098  -8.5059  -8.4980  -8.4889
    -8.4880  -8.4806  -8.4617  -8.4543  -6.2008  -4.0542  -3.9013  -3.7756
    -0.5585  -0.3360  -0.2969   3.5963   3.6016   3.6152   3.6765   3.7607
     3.8395   6.0755   6.1950   6.2055   6.3283   7.4271   7.6027   7.6909
     7.7288   7.8420   8.0985

          k = 0.0000 0.0000 0.0580 (  7696 PWs)   bands (ev):

    -8.6809  -8.6642  -8.6561  -8.5931  -8.5778  -8.5603  -8.5544  -8.5524
    -8.5432  -8.5334  -8.5255  -8.5140  -8.5123  -8.5054  -8.5016  -8.4909
    -8.4885  -8.4844  -8.4627  -8.4556  -5.8189  -4.7465  -3.9746  -3.7656
    -0.3864  -0.1802   0.9402   2.9851   3.0322   3.1327   3.2290   3.5436
     4.0924   4.1127   5.2180   5.3141   7.7645   8.5067   8.6869   9.0609
     9.1226   9.3171   9.6047

          k = 0.0000 0.0580 0.0000 (  7696 PWs)   bands (ev):

    -8.6788  -8.6662  -8.6534  -8.6004  -8.5738  -8.5624  -8.5545  -8.5527
    -8.5451  -8.5323  -8.5194  -8.5150  -8.5122  -8.5084  -8.5000  -8.4890
    -8.4876  -8.4861  -8.4634  -8.4558  -5.8160  -4.7646  -3.9492  -3.7714
    -0.3957  -0.1795   0.9430   2.9395   3.0504   3.1091   3.2124   3.5696
     4.1007   4.1510   5.2593   5.3166   7.6957   8.4112   8.6227   8.9574
     9.3150   9.4518   9.6664

          k = 0.0000 0.0580 0.0580 (  7635 PWs)   bands (ev):

    -8.6745  -8.6619  -8.6500  -8.6038  -8.5741  -8.5616  -8.5550  -8.5524
    -8.5475  -8.5342  -8.5267  -8.5182  -8.5106  -8.5084  -8.5012  -8.4937
    -8.4891  -8.4838  -8.4632  -8.4556  -5.4689  -4.5837  -4.5007  -4.0282
    -0.0956   0.5029   0.5764   2.0890   2.4744   3.1195   3.1992   4.0693
     4.2863   4.4099   4.4401   5.7263   8.3072   8.5284   9.2968   9.5351
     9.8335   9.9125  10.5667

          k = 0.0000 0.0580-0.0580 (  7635 PWs)   bands (ev):

    -8.6744  -8.6616  -8.6510  -8.6025  -8.5752  -8.5615  -8.5559  -8.5534
    -8.5463  -8.5339  -8.5256  -8.5195  -8.5103  -8.5078  -8.5009  -8.4942
    -8.4892  -8.4834  -8.4632  -8.4557  -5.4702  -4.6063  -4.4685  -4.0351
    -0.0834   0.4378   0.6165   2.0618   2.4793   3.1231   3.2652   4.0888
     4.2303   4.4216   4.4551   5.7153   8.2692   8.5530   9.3565   9.4391
     9.7785   9.8636  10.5555

          k = 0.0580 0.0000 0.0000 (  7696 PWs)   bands (ev):

    -8.6799  -8.6683  -8.6544  -8.5901  -8.5721  -8.5669  -8.5559  -8.5515
    -8.5414  -8.5357  -8.5280  -8.5148  -8.5102  -8.5041  -8.5012  -8.4921
    -8.4898  -8.4827  -8.4622  -8.4551  -5.8122  -4.7790  -3.8700  -3.8439
    -0.3460  -0.2055   0.9192   2.9688   3.0355   3.0823   3.2035   3.5455
     4.1370   4.1787   5.2559   5.2864   7.7385   8.4772   8.6776   8.9511
     9.3357   9.4277   9.5697

          k = 0.0580 0.0000 0.0580 (  7635 PWs)   bands (ev):

    -8.6768  -8.6589  -8.6503  -8.6024  -8.5730  -8.5605  -8.5563  -8.5523
    -8.5451  -8.5404  -8.5287  -8.5215  -8.5091  -8.5034  -8.5015  -8.4930
    -8.4894  -8.4845  -8.4627  -8.4557  -5.4686  -4.6446  -4.4059  -4.0623
    -0.0478   0.4195   0.5660   2.0726   2.5224   3.1302   3.2470   4.0919
     4.2603   4.3611   4.5226   5.6958   8.2168   8.4450   9.3752   9.5141
     9.7456   9.8984  10.5260

          k = 0.0580 0.0000-0.0580 (  7635 PWs)   bands (ev):

    -8.6756  -8.6607  -8.6509  -8.6003  -8.5728  -8.5613  -8.5555  -8.5513
    -8.5474  -8.5395  -8.5307  -8.5195  -8.5091  -8.5045  -8.5005  -8.4926
    -8.4890  -8.4860  -8.4627  -8.4557  -5.4645  -4.6116  -4.4740  -4.0337
    -0.1081   0.4636   0.6599   2.0588   2.4603   3.1239   3.2276   4.0771
     4.2681   4.3671   4.4372   5.7657   8.3070   8.5498   9.3380   9.5429
     9.7521   9.9967  10.5045

          k = 0.0580 0.0580 0.0000 (  7635 PWs)   bands (ev):

    -8.6733  -8.6623  -8.6515  -8.6024  -8.5743  -8.5585  -8.5553  -8.5522
    -8.5476  -8.5379  -8.5263  -8.5208  -8.5102  -8.5065  -8.5031  -8.4902
    -8.4884  -8.4857  -8.4631  -8.4557  -5.4654  -4.6696  -4.3909  -4.0524
    -0.0618   0.3755   0.6161   2.0764   2.5515   3.1133   3.2543   4.0492
     4.2857   4.3512   4.5232   5.6523   8.3197   8.5277   9.2278   9.6105
     9.7377   9.9041  10.5853

          k = 0.0580 0.0580 0.0580 (  7661 PWs)   bands (ev):

    -8.6731  -8.6585  -8.6502  -8.6096  -8.5717  -8.5611  -8.5585  -8.5558
    -8.5465  -8.5406  -8.5276  -8.5250  -8.5077  -8.5047  -8.5034  -8.4932
    -8.4883  -8.4809  -8.4624  -8.4547  -5.1769  -4.6340  -4.4297  -4.2711
    -0.1011  -0.0013   0.0818   1.0206   3.5826   3.6853   3.8445   4.5692
     4.6174   4.7986   5.3065   5.3769   7.1569   8.1912   8.2972   8.5453
    10.2710  10.4656  10.6155

          k = 0.0580 0.0580-0.0580 (  7661 PWs)   bands (ev):

    -8.6721  -8.6604  -8.6511  -8.6058  -8.5751  -8.5616  -8.5564  -8.5538
    -8.5511  -8.5380  -8.5303  -8.5213  -8.5105  -8.5057  -8.5009  -8.4919
    -8.4878  -8.4826  -8.4623  -8.4548  -5.1775  -4.5978  -4.4627  -4.2798
    -0.1254   0.0288   0.1383   0.9735   3.5191   3.6995   3.8373   4.5840
     4.6676   4.6980   5.3049   5.4330   7.2055   8.2750   8.3453   8.4457
    10.2636  10.4611  10.6340

          k = 0.0580-0.0580 0.0000 (  7635 PWs)   bands (ev):

    -8.6741  -8.6640  -8.6483  -8.6005  -8.5760  -8.5632  -8.5564  -8.5513
    -8.5460  -8.5344  -8.5265  -8.5222  -8.5091  -8.5070  -8.5024  -8.4908
    -8.4888  -8.4855  -8.4631  -8.4557  -5.4629  -4.6588  -4.4206  -4.0372
    -0.1051   0.3567   0.7552   2.0206   2.4824   3.1242   3.2889   4.1323
     4.1771   4.3888   4.4169   5.7646   8.2390   8.6468   9.2305   9.5884
     9.7623   9.9116  10.6200

          k = 0.0580-0.0580 0.0580 (  7661 PWs)   bands (ev):

    -8.6737  -8.6603  -8.6478  -8.6060  -8.5774  -8.5636  -8.5581  -8.5534
    -8.5473  -8.5387  -8.5284  -8.5234  -8.5079  -8.5059  -8.5018  -8.4932
    -8.4885  -8.4807  -8.4624  -8.4549  -5.1813  -4.6047  -4.4373  -4.2916
    -0.0975  -0.0636   0.1815   0.9861   3.5460   3.7063   3.8198   4.5762
     4.6470   4.7248   5.3291   5.4506   7.1702   8.2518   8.3183   8.4024
    10.3112  10.4722  10.5909

          k = 0.0580-0.0580-0.0580 (  7661 PWs)   bands (ev):

    -8.6731  -8.6611  -8.6484  -8.6052  -8.5755  -8.5637  -8.5545  -8.5540
    -8.5524  -8.5381  -8.5270  -8.5248  -8.5096  -8.5056  -8.5003  -8.4922
    -8.4881  -8.4828  -8.4624  -8.4548  -5.1762  -4.5827  -4.4326  -4.3354
    -0.1188   0.0460   0.1929   0.9231   3.5257   3.6674   3.7274   4.6210
     4.6630   4.6973   5.3793   5.4356   7.2223   8.3052   8.3503   8.4180
    10.2968  10.5547  10.6966

     the Fermi energy is     6.2738 ev

!    total energy              =    -764.07195465 Ry
     Harris-Foulkes estimate   =    -764.07195620 Ry
     estimated scf accuracy    <       0.00000179 Ry

     convergence has been achieved in   1 iterations

     Forces acting on atoms (Ry/au):

     atom    1 type  1   force =    -0.01126953   -0.01096837   -0.00302620
     atom    2 type  1   force =     0.00892596    0.01963789   -0.02841671
     atom    3 type  1   force =     0.00387774   -0.00030052    0.00156991
     atom    4 type  1   force =    -0.01418619    0.02057396    0.04194255
     atom    5 type  2   force =     0.00670931    0.02316760   -0.01610841
     atom    6 type  2   force =     0.02810642   -0.02569557   -0.01936665
     atom    7 type  2   force =     0.00353483   -0.01334137    0.00056654
     atom    8 type  2   force =    -0.02569853   -0.01307362    0.02283898

     Total force =     0.090227     Total SCF correction =     0.003390

     Entering Dynamics:    iteration =  2008
                           time      =   2.0080 pico-seconds


     Andersen thermostat:    1 collisions

ATOMIC_POSITIONS (crystal)
Ga       0.017897067  -0.017973481   0.017501971
Ga      -0.016315091   0.504877826   0.522961128
Ga       0.504128303   0.024528834   0.489140444
Ga       0.498541267   0.483161525  -0.032376950
As       0.237415700   0.256536240   0.258161171
As       0.726059439   0.751692321   0.254016612
As       0.763459238   0.235908437   0.759682489
As       0.269109095   0.760893216   0.730720693


     kinetic energy (Ekin) =     0.02251006 Ry
     temperature           =   338.48130880 K 
     Ekin + Etot (const)   =  -764.04944459 Ry
     Message from routine dynamics:
     Total linear momentum <> 0

     Linear momentum :    0.9658210349    7.1317736186   -4.3636520621

     Writing output data file x.save

     second order wave-functions extrapolation
     second order charge density extrapolation

     total cpu time spent up to now is     5544.8 secs

     per-process dynamical memory:    87.0 Mb

     Self-consistent Calculation

     iteration #  1     ecut=    50.00 Ry     beta=0.45
     Davidson diagonalization with overlap
     ethr =  1.00E-06,  avg # of iterations =  3.3

     Threshold (ethr) on eigenvalues was too large:
     Diagonalizing with lowered threshold

     Davidson diagonalization with overlap
     ethr =  3.54E-09,  avg # of iterations =  3.0

     total cpu time spent up to now is     5546.5 secs

     End of self-consistent calculation

          k = 0.0000 0.0000 0.0000 (  7689 PWs)   bands (ev):

    -8.6894  -8.6746  -8.6626  -8.5843  -8.5776  -8.5645  -8.5573  -8.5549
    -8.5413  -8.5313  -8.5180  -8.5160  -8.5104  -8.5078  -8.4983  -8.4897
    -8.4888  -8.4805  -8.4613  -8.4541  -6.2020  -4.0606  -3.9039  -3.7677
    -0.5576  -0.3366  -0.2992   3.5916   3.6000   3.6152   3.6739   3.7613
     3.8429   6.0787   6.1984   6.2038   6.3273   7.4191   7.6064   7.6904
     7.7305   7.8422   8.0972

          k = 0.0000 0.0000 0.0580 (  7696 PWs)   bands (ev):

    -8.6832  -8.6644  -8.6562  -8.5950  -8.5796  -8.5610  -8.5548  -8.5531
    -8.5449  -8.5344  -8.5262  -8.5152  -8.5138  -8.5075  -8.5018  -8.4915
    -8.4891  -8.4846  -8.4623  -8.4553  -5.8208  -4.7466  -3.9806  -3.7598
    -0.3852  -0.1834   0.9396   2.9828   3.0323   3.1305   3.2292   3.5474
     4.0913   4.1097   5.2206   5.3142   7.7629   8.5082   8.6846   9.0664
     9.1203   9.3178   9.6000

          k = 0.0000 0.0580 0.0000 (  7696 PWs)   bands (ev):

    -8.6813  -8.6660  -8.6536  -8.6020  -8.5758  -8.5632  -8.5550  -8.5531
    -8.5469  -8.5333  -8.5198  -8.5164  -8.5137  -8.5103  -8.5004  -8.4897
    -8.4879  -8.4866  -8.4630  -8.4555  -5.8177  -4.7655  -3.9541  -3.7661
    -0.3946  -0.1812   0.9411   2.9377   3.0486   3.1063   3.2122   3.5735
     4.0986   4.1513   5.2625   5.3167   7.6956   8.4124   8.6164   8.9599
     9.3176   9.4510   9.6716

          k = 0.0000 0.0580 0.0580 (  7635 PWs)   bands (ev):

    -8.6768  -8.6620  -8.6501  -8.6053  -8.5761  -8.5627  -8.5555  -8.5530
    -8.5489  -8.5352  -8.5274  -8.5189  -8.5124  -8.5102  -8.5020  -8.4940
    -8.4897  -8.4843  -8.4628  -8.4553  -5.4711  -4.5844  -4.5042  -4.0240
    -0.0977   0.5052   0.5763   2.0853   2.4729   3.1191   3.1985   4.0643
     4.2819   4.4100   4.4471   5.7298   8.3084   8.5308   9.3011   9.5319
     9.8339   9.9150  10.5647

          k = 0.0000 0.0580-0.0580 (  7635 PWs)   bands (ev):

    -8.6769  -8.6610  -8.6516  -8.6043  -8.5771  -8.5625  -8.5569  -8.5536
    -8.5473  -8.5351  -8.5266  -8.5200  -8.5124  -8.5095  -8.5014  -8.4946
    -8.4899  -8.4839  -8.4628  -8.4554  -5.4729  -4.6065  -4.4708  -4.0320
    -0.0820   0.4357   0.6117   2.0616   2.4801   3.1237   3.2640   4.0886
     4.2314   4.4200   4.4598   5.7127   8.2667   8.5526   9.3560   9.4367
     9.7798   9.8620  10.5517

          k = 0.0580 0.0000 0.0000 (  7696 PWs)   bands (ev):

    -8.6823  -8.6682  -8.6550  -8.5912  -8.5738  -8.5681  -8.5562  -8.5521
    -8.5430  -8.5369  -8.5293  -8.5148  -8.5123  -8.5059  -8.5017  -8.4928
    -8.4905  -8.4826  -8.4618  -8.4549  -5.8136  -4.7817  -3.8702  -3.8418
    -0.3462  -0.2059   0.9170   2.9682   3.0323   3.0789   3.2023   3.5489
     4.1369   4.1814   5.2556   5.2876   7.7387   8.4780   8.6764   8.9539
     9.3382   9.4257   9.5709

          k = 0.0580 0.0000 0.0580 (  7635 PWs)   bands (ev):

    -8.6791  -8.6589  -8.6506  -8.6038  -8.5749  -8.5615  -8.5568  -8.5534
    -8.5461  -8.5416  -8.5296  -8.5219  -8.5114  -8.5050  -8.5021  -8.4935
    -8.4899  -8.4849  -8.4623  -8.4554  -5.4704  -4.6497  -4.4050  -4.0586
    -0.0518   0.4231   0.5687   2.0643   2.5225   3.1304   3.2465   4.0843
     4.2584   4.3634   4.5261   5.7010   8.2225   8.4460   9.3787   9.5113
     9.7442   9.9023  10.5272

          k = 0.0580 0.0000-0.0580 (  7635 PWs)   bands (ev):

    -8.6780  -8.6607  -8.6511  -8.6019  -8.5747  -8.5623  -8.5557  -8.5522
    -8.5486  -8.5408  -8.5316  -8.5200  -8.5113  -8.5059  -8.5013  -8.4930
    -8.4895  -8.4864  -8.4623  -8.4554  -5.4673  -4.6152  -4.4712  -4.0322
    -0.1053   0.4576   0.6551   2.0618   2.4617   3.1248   3.2263   4.0781
     4.2703   4.3643   4.4399   5.7629   8.2998   8.5493   9.3415   9.5382
     9.7480  10.0013  10.5016

          k = 0.0580 0.0580 0.0000 (  7635 PWs)   bands (ev):

    -8.6758  -8.6621  -8.6521  -8.6037  -8.5762  -8.5598  -8.5556  -8.5532
    -8.5486  -8.5392  -8.5274  -8.5211  -8.5119  -8.5077  -8.5043  -8.4908
    -8.4888  -8.4861  -8.4627  -8.4554  -5.4672  -4.6743  -4.3897  -4.0493
    -0.0636   0.3765   0.6159   2.0702   2.5536   3.1146   3.2544   4.0428
     4.2846   4.3512   4.5270   5.6550   8.3187   8.5313   9.2310   9.6086
     9.7327   9.9088  10.5863

          k = 0.0580 0.0580 0.0580 (  7661 PWs)   bands (ev):

    -8.6754  -8.6588  -8.6503  -8.6108  -8.5738  -8.5624  -8.5597  -8.5560
    -8.5477  -8.5414  -8.5283  -8.5258  -8.5098  -8.5063  -8.5038  -8.4938
    -8.4890  -8.4814  -8.4620  -8.4544  -5.1789  -4.6390  -4.4333  -4.2635
    -0.1043   0.0057   0.0842   1.0139   3.5734   3.6759   3.8452   4.5702
     4.6194   4.8018   5.3101   5.3795   7.1618   8.1921   8.2993   8.5462
    10.2773  10.4664  10.6164

          k = 0.0580 0.0580-0.0580 (  7661 PWs)   bands (ev):

    -8.6748  -8.6599  -8.6515  -8.6074  -8.5770  -8.5630  -8.5574  -8.5542
    -8.5519  -8.5392  -8.5312  -8.5219  -8.5120  -8.5075  -8.5014  -8.4927
    -8.4884  -8.4830  -8.4619  -8.4545  -5.1813  -4.6021  -4.4638  -4.2721
    -0.1299   0.0259   0.1377   0.9774   3.5177   3.7027   3.8438   4.5761
     4.6638   4.6993   5.3088   5.4314   7.2027   8.2711   8.3461   8.4469
    10.2629  10.4591  10.6293

          k = 0.0580-0.0580 0.0000 (  7635 PWs)   bands (ev):

    -8.6765  -8.6639  -8.6488  -8.6017  -8.5779  -8.5646  -8.5569  -8.5519
    -8.5475  -8.5354  -8.5275  -8.5226  -8.5109  -8.5082  -8.5034  -8.4914
    -8.4893  -8.4859  -8.4627  -8.4554  -5.4652  -4.6630  -4.4180  -4.0354
    -0.1038   0.3519   0.7538   2.0191   2.4849   3.1259   3.2886   4.1310
     4.1743   4.3866   4.4228   5.7637   8.2341   8.6489   9.2324   9.5841
     9.7583   9.9162  10.6196

          k = 0.0580-0.0580 0.0580 (  7661 PWs)   bands (ev):

    -8.6762  -8.6599  -8.6484  -8.6074  -8.5793  -8.5650  -8.5589  -8.5542
    -8.5482  -8.5397  -8.5290  -8.5243  -8.5098  -8.5075  -8.5021  -8.4939
    -8.4892  -8.4812  -8.4620  -8.4547  -5.1845  -4.6094  -4.4396  -4.2834
    -0.1027  -0.0622   0.1822   0.9862   3.5427   3.7008   3.8287   4.5710
     4.6440   4.7288   5.3304   5.4520   7.1710   8.2559   8.3152   8.3992
    10.3117  10.4690  10.5925

          k = 0.0580-0.0580-0.0580 (  7661 PWs)   bands (ev):

    -8.6754  -8.6613  -8.6486  -8.6065  -8.5775  -8.5649  -8.5557  -8.5545
    -8.5532  -8.5391  -8.5277  -8.5257  -8.5110  -8.5075  -8.5007  -8.4929
    -8.4888  -8.4833  -8.4620  -8.4545  -5.1800  -4.5874  -4.4343  -4.3269
    -0.1253   0.0463   0.1928   0.9261   3.5236   3.6720   3.7304   4.6161
     4.6561   4.6970   5.3843   5.4361   7.2199   8.3094   8.3462   8.4170
    10.2978  10.5530  10.6945

     the Fermi energy is     6.2736 ev

!    total energy              =    -764.07161788 Ry
     Harris-Foulkes estimate   =    -764.07161974 Ry
     estimated scf accuracy    <       0.00000253 Ry

     convergence has been achieved in   1 iterations

     Forces acting on atoms (Ry/au):

     atom    1 type  1   force =    -0.01068392   -0.01054380   -0.00474603
     atom    2 type  1   force =     0.00760524    0.02063032   -0.03000347
     atom    3 type  1   force =     0.00285944   -0.00343225    0.00197225
     atom    4 type  1   force =    -0.01372799    0.01935142    0.04366225
     atom    5 type  2   force =     0.00708642    0.02438731   -0.01573488
     atom    6 type  2   force =     0.02802531   -0.02495714   -0.01849623
     atom    7 type  2   force =     0.00416882   -0.01368248    0.00156593
     atom    8 type  2   force =    -0.02533331   -0.01175338    0.02178018

     Total force =     0.090714     Total SCF correction =     0.005215

     Entering Dynamics:    iteration =  2009
                           time      =   2.0090 pico-seconds


ATOMIC_POSITIONS (crystal)
Ga       0.017818774  -0.017700450   0.017572746
Ga      -0.015881874   0.504434200   0.523554592
Ga       0.503912975   0.025112237   0.489309404
Ga       0.498847844   0.483446024  -0.032918831
As       0.237355889   0.256342318   0.257824719
As       0.726100119   0.751502380   0.254007889
As       0.763188174   0.235868697   0.759282529
As       0.268984077   0.760667900   0.731194727


     kinetic energy (Ekin) =     0.02193157 Ry
     temperature           =   329.78254448 K 
     Ekin + Etot (const)   =  -764.04968631 Ry

     Linear momentum :   -0.0000000000    0.0000000000   -0.0000000000

     Writing output data file x.save

     second order wave-functions extrapolation
     second order charge density extrapolation

     total cpu time spent up to now is     5547.2 secs

     per-process dynamical memory:    87.0 Mb

     Self-consistent Calculation

     iteration #  1     ecut=    50.00 Ry     beta=0.45
     Davidson diagonalization with overlap
     ethr =  1.00E-06,  avg # of iterations =  2.1

     Threshold (ethr) on eigenvalues was too large:
     Diagonalizing with lowered threshold

     Davidson diagonalization with overlap
     ethr =  1.48E-08,  avg # of iterations =  1.8

     total cpu time spent up to now is     5548.5 secs

     total energy              =    -764.07127232 Ry
     Harris-Foulkes estimate   =    -764.07127925 Ry
     estimated scf accuracy    <       0.00001106 Ry

     iteration #  2     ecut=    50.00 Ry     beta=0.45
     Davidson diagonalization with overlap
     ethr =  1.54E-08,  avg # of iterations =  2.3

     total cpu time spent up to now is     5549.2 secs

     End of self-consistent calculation

          k = 0.0000 0.0000 0.0000 (  7689 PWs)   bands (ev):

    -8.6912  -8.6754  -8.6632  -8.5850  -8.5781  -8.5639  -8.5594  -8.5569
    -8.5409  -8.5303  -8.5171  -8.5145  -8.5099  -8.5072  -8.4984  -8.4877
    -8.4869  -8.4799  -8.4610  -8.4538  -6.2030  -4.0664  -3.9061  -3.7599
    -0.5563  -0.3376  -0.3013   3.5873   3.5990   3.6152   3.6715   3.7621
     3.8462   6.0824   6.1965   6.2073   6.3265   7.4108   7.6100   7.6895
     7.7334   7.8427   8.0957

          k = 0.0000 0.0000 0.0580 (  7696 PWs)   bands (ev):

    -8.6850  -8.6654  -8.6569  -8.5954  -8.5804  -8.5611  -8.5567  -8.5547
    -8.5441  -8.5335  -8.5246  -8.5145  -8.5132  -8.5069  -8.5017  -8.4896
    -8.4871  -8.4837  -8.4621  -8.4551  -5.8224  -4.7465  -3.9861  -3.7539
    -0.3836  -0.1869   0.9391   2.9806   3.0326   3.1285   3.2294   3.5514
     4.0902   4.1069   5.2237   5.3142   7.7613   8.5096   8.6823   9.0718
     9.1182   9.3191   9.5953

          k = 0.0000 0.0580 0.0000 (  7696 PWs)   bands (ev):

    -8.6834  -8.6668  -8.6546  -8.6020  -8.5764  -8.5631  -8.5571  -8.5551
    -8.5462  -8.5320  -8.5191  -8.5154  -8.5126  -8.5097  -8.5005  -8.4875
    -8.4868  -8.4852  -8.4627  -8.4553  -5.8192  -4.7663  -3.9583  -3.7608
    -0.3936  -0.1827   0.9393   2.9358   3.0472   3.1037   3.2122   3.5778
     4.0964   4.1518   5.2657   5.3169   7.6954   8.4141   8.6100   8.9628
     9.3205   9.4509   9.6762

          k = 0.0000 0.0580 0.0580 (  7635 PWs)   bands (ev):

    -8.6788  -8.6630  -8.6512  -8.6054  -8.5767  -8.5628  -8.5569  -8.5546
    -8.5485  -8.5340  -8.5262  -8.5182  -8.5120  -8.5097  -8.5016  -8.4929
    -8.4875  -8.4828  -8.4626  -8.4550  -5.4732  -4.5852  -4.5070  -4.0195
    -0.0997   0.5063   0.5777   2.0817   2.4714   3.1187   3.1982   4.0600
     4.2774   4.4104   4.4542   5.7333   8.3096   8.5331   9.3050   9.5293
     9.8348   9.9173  10.5627

          k = 0.0000 0.0580-0.0580 (  7635 PWs)   bands (ev):

    -8.6790  -8.6617  -8.6530  -8.6043  -8.5779  -8.5623  -8.5578  -8.5556
    -8.5470  -8.5341  -8.5253  -8.5194  -8.5118  -8.5091  -8.5009  -8.4937
    -8.4876  -8.4824  -8.4626  -8.4552  -5.4754  -4.6063  -4.4729  -4.0284
    -0.0806   0.4342   0.6067   2.0616   2.4810   3.1245   3.2628   4.0887
     4.2327   4.4185   4.4646   5.7103   8.2644   8.5523   9.3556   9.4344
     9.7814   9.8606  10.5478

          k = 0.0580 0.0000 0.0000 (  7696 PWs)   bands (ev):

    -8.6843  -8.6689  -8.6562  -8.5915  -8.5742  -8.5677  -8.5584  -8.5540
    -8.5428  -8.5356  -8.5281  -8.5143  -8.5116  -8.5055  -8.5015  -8.4906
    -8.4885  -8.4818  -8.4615  -8.4546  -5.8147  -4.7842  -3.8708  -3.8387
    -0.3460  -0.2064   0.9149   2.9673   3.0292   3.0758   3.2014   3.5528
     4.1368   4.1843   5.2554   5.2891   7.7389   8.4789   8.6751   8.9568
     9.3408   9.4235   9.5721

          k = 0.0580 0.0000 0.0580 (  7635 PWs)   bands (ev):

    -8.6811  -8.6598  -8.6518  -8.6040  -8.5755  -8.5614  -8.5587  -8.5545
    -8.5459  -8.5408  -8.5281  -8.5216  -8.5107  -8.5045  -8.5018  -8.4917
    -8.4879  -8.4836  -8.4621  -8.4552  -5.4719  -4.6543  -4.4042  -4.0544
    -0.0558   0.4272   0.5714   2.0562   2.5226   3.1312   3.2456   4.0769
     4.2565   4.3657   4.5298   5.7064   8.2280   8.4477   9.3826   9.5085
     9.7431   9.9062  10.5285

          k = 0.0580 0.0000-0.0580 (  7635 PWs)   bands (ev):

    -8.6801  -8.6617  -8.6522  -8.6019  -8.5754  -8.5624  -8.5578  -8.5532
    -8.5485  -8.5396  -8.5304  -8.5195  -8.5106  -8.5054  -8.5009  -8.4913
    -8.4877  -8.4849  -8.4620  -8.4552  -5.4698  -4.6185  -4.4683  -4.0304
    -0.1021   0.4512   0.6508   2.0651   2.4634   3.1262   3.2250   4.0792
     4.2725   4.3618   4.4428   5.7601   8.2924   8.5489   9.3454   9.5333
     9.7441  10.0057  10.4992

          k = 0.0580 0.0580 0.0000 (  7635 PWs)   bands (ev):

    -8.6779  -8.6629  -8.6533  -8.6038  -8.5768  -8.5603  -8.5572  -8.5533
    -8.5491  -8.5381  -8.5263  -8.5204  -8.5114  -8.5072  -8.5041  -8.4886
    -8.4872  -8.4850  -8.4624  -8.4552  -5.4688  -4.6786  -4.3885  -4.0458
    -0.0654   0.3778   0.6162   2.0642   2.5555   3.1158   3.2548   4.0369
     4.2838   4.3512   4.5305   5.6583   8.3174   8.5355   9.2343   9.6068
     9.7279   9.9138  10.5873

          k = 0.0580 0.0580 0.0580 (  7661 PWs)   bands (ev):

[...]
     4.5652   4.6222   5.2710   5.3281   7.1010   8.3147   8.3489   8.4131
    10.2815  10.3890  10.6269

          k = 0.0580-0.0580-0.0580 (  7661 PWs)   bands (ev):

    -8.6611  -8.6465  -8.6239  -8.6058  -8.5673  -8.5585  -8.5511  -8.5464
    -8.5390  -8.5339  -8.5300  -8.5211  -8.5168  -8.5104  -8.4965  -8.4930
    -8.4913  -8.4875  -8.4737  -8.4722  -5.1608  -4.5850  -4.4494  -4.3776
    -0.1227  -0.0253   0.2179   0.9359   3.5555   3.6243   3.7617   4.5492
     4.6574   4.7772   5.2074   5.4876   7.2491   8.2384   8.3746   8.5017
    10.3939  10.5087  10.6063

     the Fermi energy is     6.3387 ev

!    total energy              =    -764.07779096 Ry
     Harris-Foulkes estimate   =    -764.07779427 Ry
     estimated scf accuracy    <       0.00000367 Ry

     convergence has been achieved in   2 iterations

     Forces acting on atoms (Ry/au):

     atom    1 type  1   force =    -0.01945668    0.00626779   -0.02158430
     atom    2 type  1   force =    -0.02350694    0.00220315   -0.01979470
     atom    3 type  1   force =    -0.02592155    0.01628954    0.00847452
     atom    4 type  1   force =     0.03265048   -0.00807582    0.00004877
     atom    5 type  2   force =     0.01943455   -0.00764820    0.03257802
     atom    6 type  2   force =     0.01576111   -0.02245825   -0.00098964
     atom    7 type  2   force =     0.00948306   -0.00908436    0.01431636
     atom    8 type  2   force =    -0.00844403    0.02250615   -0.01304904

     Total force =     0.085733     Total SCF correction =     0.003424

     Entering Dynamics:    iteration =  2399
                           time      =   2.3990 pico-seconds


ATOMIC_POSITIONS (crystal)
Ga      -0.002908131  -0.011707274   0.002258280
Ga       0.018574187   0.495773090   0.522482236
Ga       0.520447847   0.003977550   0.482435000
Ga       0.476810526   0.504301477   0.005084181
As       0.232651616   0.249338502   0.237615528
As       0.750372475   0.743048461   0.251108246
As       0.741022650   0.257705360   0.750309971
As       0.263925678   0.757031630   0.749557296


     kinetic energy (Ekin) =     0.00888334 Ry
     temperature           =   133.57779373 K 
     Ekin + Etot (const)   =  -764.06890761 Ry

     Linear momentum :    0.0000000000   -0.0000000000    0.0000000000

     Writing output data file x.save

     second order wave-functions extrapolation
     second order charge density extrapolation

     total cpu time spent up to now is     6613.0 secs

     per-process dynamical memory:    87.0 Mb

     Self-consistent Calculation

     iteration #  1     ecut=    50.00 Ry     beta=0.45
     Davidson diagonalization with overlap
     ethr =  1.00E-06,  avg # of iterations =  3.9

     total cpu time spent up to now is     6614.0 secs

     total energy              =    -764.07774224 Ry
     Harris-Foulkes estimate   =    -764.07787170 Ry
     estimated scf accuracy    <       0.00020377 Ry

     iteration #  2     ecut=    50.00 Ry     beta=0.45
     Davidson diagonalization with overlap
     ethr =  2.83E-07,  avg # of iterations =  2.7

     total cpu time spent up to now is     6614.6 secs

     total energy              =    -764.07780645 Ry
     Harris-Foulkes estimate   =    -764.07782889 Ry
     estimated scf accuracy    <       0.00004798 Ry

     iteration #  3     ecut=    50.00 Ry     beta=0.45
     Davidson diagonalization with overlap
     ethr =  6.66E-08,  avg # of iterations =  2.0

     total cpu time spent up to now is     6615.3 secs

     End of self-consistent calculation

          k = 0.0000 0.0000 0.0000 (  7689 PWs)   bands (ev):

    -8.6776  -8.6626  -8.6443  -8.5719  -8.5662  -8.5628  -8.5351  -8.5322
    -8.5293  -8.5280  -8.5251  -8.5173  -8.5105  -8.5071  -8.5020  -8.4961
    -8.4914  -8.4843  -8.4776  -8.4743  -6.2029  -4.0060  -3.9431  -3.8348
    -0.4797  -0.3924  -0.3504   3.5748   3.5803   3.6279   3.6666   3.7670
     3.7984   6.0425   6.1142   6.3236   6.3562   7.5208   7.6271   7.7421
     7.7695   7.8413   7.9974

          k = 0.0000 0.0000 0.0580 (  7696 PWs)   bands (ev):

    -8.6675  -8.6542  -8.6328  -8.5905  -8.5644  -8.5589  -8.5381  -8.5350
    -8.5305  -8.5277  -8.5266  -8.5247  -8.5171  -8.5058  -8.5020  -8.4963
    -8.4893  -8.4880  -8.4795  -8.4779  -5.8126  -4.7768  -3.9055  -3.8614
    -0.3642  -0.2271   0.9283   2.9826   3.0029   3.1742   3.2156   3.4882
     4.0513   4.1817   5.1659   5.3275   7.7523   8.5051   8.7340   9.0825
     9.3454   9.3952   9.5499

          k = 0.0000 0.0580 0.0000 (  7696 PWs)   bands (ev):

    -8.6682  -8.6524  -8.6339  -8.5918  -8.5632  -8.5595  -8.5392  -8.5335
    -8.5301  -8.5290  -8.5274  -8.5251  -8.5160  -8.5043  -8.5015  -8.4942
    -8.4922  -8.4893  -8.4790  -8.4772  -5.8122  -4.7745  -3.9316  -3.8420
    -0.3095  -0.2629   0.9152   2.9695   3.0064   3.1505   3.2355   3.4751
     4.0862   4.1578   5.2067   5.3065   7.7624   8.5192   8.7083   8.9974
     9.3181   9.4222   9.5752

          k = 0.0000 0.0580 0.0580 (  7635 PWs)   bands (ev):

    -8.6607  -8.6463  -8.6277  -8.6015  -8.5624  -8.5566  -8.5449  -8.5395
    -8.5356  -8.5324  -8.5272  -8.5233  -8.5173  -8.5113  -8.4975  -8.4928
    -8.4902  -8.4891  -8.4805  -8.4794  -5.4504  -4.6286  -4.4944  -4.0630
    -0.1495   0.5226   0.6611   2.0101   2.4436   3.1570   3.1887   4.1077
     4.2257   4.2970   4.4132   5.7936   8.4114   8.5974   9.3987   9.5061
     9.7994   9.9696  10.6135

          k = 0.0000 0.0580-0.0580 (  7635 PWs)   bands (ev):

    -8.6606  -8.6470  -8.6287  -8.5993  -8.5637  -8.5577  -8.5464  -8.5392
    -8.5362  -8.5298  -8.5254  -8.5240  -8.5190  -8.5098  -8.4972  -8.4926
    -8.4901  -8.4893  -8.4807  -8.4797  -5.4647  -4.6157  -4.4456  -4.1067
    -0.0250   0.3659   0.5243   2.1347   2.5312   3.1349   3.2264   4.1208
     4.2510   4.3430   4.4788   5.6052   8.2524   8.5183   9.3845   9.4969
     9.7730   9.9027  10.5680

          k = 0.0580 0.0000 0.0000 (  7696 PWs)   bands (ev):

    -8.6711  -8.6470  -8.6354  -8.5941  -8.5608  -8.5585  -8.5398  -8.5341
    -8.5325  -8.5302  -8.5254  -8.5213  -8.5138  -8.5100  -8.5030  -8.4978
    -8.4877  -8.4855  -8.4811  -8.4784  -5.8144  -4.7671  -3.9584  -3.8165
    -0.3223  -0.2726   0.9327   2.9721   3.0462   3.1628   3.2065   3.4904
     4.0527   4.1524   5.1787   5.3183   7.7483   8.5486   8.7181   9.0771
     9.2972   9.4819   9.5723

          k = 0.0580 0.0000 0.0580 (  7635 PWs)   bands (ev):

    -8.6629  -8.6433  -8.6298  -8.5994  -8.5616  -8.5576  -8.5462  -8.5411
    -8.5345  -8.5312  -8.5272  -8.5240  -8.5168  -8.5115  -8.4982  -8.4948
    -8.4882  -8.4866  -8.4818  -8.4797  -5.4671  -4.5829  -4.4924  -4.0889
    -0.0599   0.4523   0.4958   2.1493   2.4915   3.1323   3.1801   4.1352
     4.2691   4.3614   4.4377   5.6423   8.2999   8.4928   9.4017   9.4790
     9.8405   9.9504  10.4998

          k = 0.0580 0.0000-0.0580 (  7635 PWs)   bands (ev):

    -8.6640  -8.6423  -8.6274  -8.6015  -8.5626  -8.5578  -8.5450  -8.5425
    -8.5325  -8.5303  -8.5278  -8.5237  -8.5177  -8.5121  -8.4979  -8.4948
    -8.4885  -8.4868  -8.4817  -8.4796  -5.4546  -4.6507  -4.4560  -4.0710
    -0.1261   0.4056   0.7250   2.0370   2.4462   3.1154   3.2247   4.1398
     4.2063   4.3114   4.4231   5.7721   8.3830   8.5505   9.2850   9.5783
     9.8861   9.9895  10.5625

          k = 0.0580 0.0580 0.0000 (  7635 PWs)   bands (ev):

    -8.6629  -8.6404  -8.6304  -8.6034  -8.5596  -8.5579  -8.5477  -8.5387
    -8.5352  -8.5311  -8.5260  -8.5221  -8.5196  -8.5121  -8.4976  -8.4934
    -8.4891  -8.4881  -8.4814  -8.4796  -5.4509  -4.6338  -4.4908  -4.0599
    -0.1494   0.4910   0.7042   1.9889   2.4400   3.1262   3.2319   4.0906
     4.1959   4.2974   4.4625   5.8011   8.4027   8.5716   9.4160   9.4778
     9.8560   9.9479  10.5927

          k = 0.0580 0.0580 0.0580 (  7661 PWs)   bands (ev):

    -8.6590  -8.6403  -8.6289  -8.6070  -8.5610  -8.5571  -8.5511  -8.5443
    -8.5403  -8.5350  -8.5315  -8.5223  -8.5155  -8.5128  -8.4942  -8.4911
    -8.4879  -8.4855  -8.4808  -8.4790  -5.1517  -4.5711  -4.4913  -4.3658
    -0.0677  -0.0102   0.2157   0.8850   3.5081   3.6012   3.7061   4.6070
     4.6509   4.8081   5.2442   5.4753   7.2829   8.2816   8.3449   8.5037
    10.4331  10.4933  10.6975

          k = 0.0580 0.0580-0.0580 (  7661 PWs)   bands (ev):

    -8.6594  -8.6397  -8.6294  -8.6066  -8.5600  -8.5560  -8.5556  -8.5454
    -8.5398  -8.5345  -8.5272  -8.5249  -8.5163  -8.5114  -8.4936  -8.4898
    -8.4882  -8.4862  -8.4813  -8.4793  -5.1564  -4.5878  -4.4762  -4.3528
    -0.1244  -0.0134   0.2206   0.9210   3.5179   3.6902   3.7070   4.5765
     4.6393   4.7997   5.2248   5.4826   7.2466   8.2611   8.3548   8.4720
    10.4085  10.5260  10.6255

          k = 0.0580-0.0580 0.0000 (  7635 PWs)   bands (ev):

    -8.6623  -8.6460  -8.6275  -8.5989  -8.5642  -8.5589  -8.5454  -8.5406
    -8.5345  -8.5302  -8.5255  -8.5231  -8.5175  -8.5123  -8.4979  -8.4936
    -8.4889  -8.4882  -8.4814  -8.4794  -5.4686  -4.5496  -4.5171  -4.0972
    -0.0191   0.3878   0.4868   2.1907   2.4965   3.1170   3.2114   4.1547
     4.2750   4.3760   4.4111   5.5951   8.2745   8.4920   9.3490   9.5264
     9.8424   9.8981  10.5128

          k = 0.0580-0.0580 0.0580 (  7661 PWs)   bands (ev):

    -8.6579  -8.6456  -8.6277  -8.6036  -8.5639  -8.5568  -8.5530  -8.5448
    -8.5409  -8.5332  -8.5291  -8.5251  -8.5143  -8.5101  -8.4942  -8.4902
    -8.4882  -8.4860  -8.4812  -8.4792  -5.1897  -4.5499  -4.4583  -4.3514
    -0.1495  -0.0343   0.0005   1.1246   3.6702   3.8375   3.9080   4.5086
     4.5653   4.6209   5.2707   5.3255   7.0989   8.3119   8.3521   8.4115
    10.2809  10.3843  10.6281

          k = 0.0580-0.0580-0.0580 (  7661 PWs)   bands (ev):

    -8.6594  -8.6440  -8.6240  -8.6065  -8.5644  -8.5572  -8.5504  -8.5450
    -8.5395  -8.5348  -8.5293  -8.5234  -8.5150  -8.5130  -8.4941  -8.4910
    -8.4881  -8.4857  -8.4807  -8.4790  -5.1597  -4.5838  -4.4503  -4.3794
    -0.1202  -0.0282   0.2203   0.9344   3.5536   3.6241   3.7610   4.5523
     4.6554   4.7792   5.2056   5.4886   7.2498   8.2398   8.3726   8.5020
    10.3954  10.5111  10.6048

     the Fermi energy is     6.3399 ev

!    total energy              =    -764.07781588 Ry
     Harris-Foulkes estimate   =    -764.07781590 Ry
     estimated scf accuracy    <       0.00000003 Ry

     convergence has been achieved in   3 iterations

     Forces acting on atoms (Ry/au):

     atom    1 type  1   force =    -0.01825636    0.00749627   -0.02214540
     atom    2 type  1   force =    -0.02367598    0.00247834   -0.01946965
     atom    3 type  1   force =    -0.02640466    0.01637933    0.00776093
     atom    4 type  1   force =     0.03187282   -0.00842311    0.00077719
     atom    5 type  2   force =     0.02003521   -0.00751945    0.03215101
     atom    6 type  2   force =     0.01471131   -0.02377874   -0.00012175
     atom    7 type  2   force =     0.01002156   -0.00856558    0.01429621
     atom    8 type  2   force =    -0.00830391    0.02193294   -0.01324855

     Total force =     0.085534     Total SCF correction =     0.000762

     Entering Dynamics:    iteration =  2400
                           time      =   2.4000 pico-seconds


ATOMIC_POSITIONS (crystal)
Ga      -0.003213224  -0.011910580   0.002227244
Ga       0.018517549   0.495575504   0.522564258
Ga       0.520545995   0.003841373   0.482615729
Ga       0.476992984   0.504381559   0.005084343
As       0.232577840   0.249254813   0.237748216
As       0.750807434   0.743539889   0.250875028
As       0.740706016   0.257544160   0.750239673
As       0.263956624   0.757210367   0.749512337


     kinetic energy (Ekin) =     0.00890844 Ry
     temperature           =   133.95528912 K 
     Ekin + Etot (const)   =  -764.06890743 Ry

     Linear momentum :   -0.0000000000   -0.0000000000    0.0000000000

     Writing output data file x.save

     second order wave-functions extrapolation
     second order charge density extrapolation

     total cpu time spent up to now is     6615.9 secs

     per-process dynamical memory:    87.0 Mb

     Self-consistent Calculation

     iteration #  1     ecut=    50.00 Ry     beta=0.45
     Davidson diagonalization with overlap
     ethr =  1.00E-06,  avg # of iterations =  4.3

     total cpu time spent up to now is     6616.9 secs

     total energy              =    -764.07780479 Ry
     Harris-Foulkes estimate   =    -764.07789779 Ry
     estimated scf accuracy    <       0.00014660 Ry

     iteration #  2     ecut=    50.00 Ry     beta=0.45
     Davidson diagonalization with overlap
     ethr =  2.04E-07,  avg # of iterations =  2.7

     total cpu time spent up to now is     6617.6 secs

     total energy              =    -764.07785059 Ry
     Harris-Foulkes estimate   =    -764.07786628 Ry
     estimated scf accuracy    <       0.00003339 Ry

     iteration #  3     ecut=    50.00 Ry     beta=0.45
     Davidson diagonalization with overlap
     ethr =  4.64E-08,  avg # of iterations =  2.0

     total cpu time spent up to now is     6618.2 secs

     End of self-consistent calculation

          k = 0.0000 0.0000 0.0000 (  7689 PWs)   bands (ev):

    -8.6763  -8.6619  -8.6443  -8.5712  -8.5657  -8.5623  -8.5351  -8.5308
    -8.5284  -8.5276  -8.5242  -8.5177  -8.5110  -8.5074  -8.5029  -8.4956
    -8.4921  -8.4840  -8.4788  -8.4752  -6.2026  -4.0043  -3.9427  -3.8374
    -0.4773  -0.3938  -0.3511   3.5777   3.5808   3.6246   3.6658   3.7686
     3.7984   6.0439   6.1101   6.3238   6.3581   7.5238   7.6283   7.7409
     7.7684   7.8411   7.9955

          k = 0.0000 0.0000 0.0580 (  7696 PWs)   bands (ev):

    -8.6661  -8.6535  -8.6327  -8.5904  -8.5635  -8.5583  -8.5374  -8.5350
    -8.5301  -8.5267  -8.5261  -8.5244  -8.5176  -8.5066  -8.5020  -8.4959
    -8.4898  -8.4881  -8.4806  -8.4789  -5.8123  -4.7765  -3.9048  -3.8627
    -0.3640  -0.2275   0.9286   2.9834   3.0030   3.1744   3.2164   3.4867
     4.0508   4.1822   5.1649   5.3286   7.7513   8.5037   8.7353   9.0830
     9.3463   9.3938   9.5505

          k = 0.0000 0.0580 0.0000 (  7696 PWs)   bands (ev):

    -8.6671  -8.6513  -8.6337  -8.5923  -8.5621  -8.5586  -8.5394  -8.5339
    -8.5291  -8.5275  -8.5264  -8.5244  -8.5170  -8.5053  -8.5017  -8.4947
    -8.4919  -8.4890  -8.4802  -8.4783  -5.8119  -4.7740  -3.9329  -3.8416
    -0.3054  -0.2671   0.9157   2.9698   3.0069   3.1534   3.2352   3.4729
     4.0835   4.1596   5.2037   5.3083   7.7631   8.5215   8.7080   8.9986
     9.3149   9.4192   9.5780

          k = 0.0000 0.0580 0.0580 (  7635 PWs)   bands (ev):

    -8.6593  -8.6451  -8.6276  -8.6018  -8.5614  -8.5559  -8.5442  -8.5397
    -8.5352  -8.5324  -8.5269  -8.5221  -8.5172  -8.5121  -8.4973  -8.4923
    -8.4906  -8.4894  -8.4818  -8.4806  -5.4500  -4.6265  -4.4963  -4.0636
    -0.1488   0.5223   0.6603   2.0117   2.4427   3.1564   3.1896   4.1079
     4.2256   4.2964   4.4141   5.7929   8.4131   8.5950   9.4005   9.5033
     9.8020   9.9674  10.6140

          k = 0.0000 0.0580-0.0580 (  7635 PWs)   bands (ev):

    -8.6592  -8.6457  -8.6287  -8.5996  -8.5627  -8.5570  -8.5458  -8.5392
    -8.5355  -8.5299  -8.5249  -8.5238  -8.5187  -8.5103  -8.4970  -8.4922
    -8.4901  -8.4898  -8.4820  -8.4810  -5.4643  -4.6129  -4.4487  -4.1069
    -0.0258   0.3691   0.5227   2.1359   2.5291   3.1352   3.2247   4.1243
     4.2525   4.3423   4.4757   5.6055   8.2545   8.5179   9.3846   9.4951
     9.7760   9.8997  10.5693

          k = 0.0580 0.0000 0.0000 (  7696 PWs)   bands (ev):

    -8.6697  -8.6464  -8.6353  -8.5936  -8.5602  -8.5576  -8.5395  -8.5339
    -8.5319  -8.5292  -8.5243  -8.5222  -8.5143  -8.5102  -8.5029  -8.4974
    -8.4883  -8.4855  -8.4823  -8.4793  -5.8139  -4.7677  -3.9551  -3.8199
    -0.3219  -0.2721   0.9321   2.9714   3.0447   3.1642   3.2068   3.4905
     4.0532   4.1533   5.1786   5.3175   7.7487   8.5491   8.7205   9.0742
     9.2980   9.4822   9.5701

          k = 0.0580 0.0000 0.0580 (  7635 PWs)   bands (ev):

    -8.6614  -8.6425  -8.6298  -8.5991  -8.5610  -8.5568  -8.5455  -8.5409
    -8.5350  -8.5309  -8.5275  -8.5232  -8.5159  -8.5121  -8.4979  -8.4942
    -8.4884  -8.4870  -8.4831  -8.4810  -5.4668  -4.5821  -4.4915  -4.0908
    -0.0573   0.4517   0.4904   2.1533   2.4926   3.1341   3.1783   4.1390
     4.2704   4.3598   4.4363   5.6386   8.2972   8.4925   9.3982   9.4815
     9.8407   9.9495  10.4991

          k = 0.0580 0.0000-0.0580 (  7635 PWs)   bands (ev):

    -8.6625  -8.6414  -8.6273  -8.6014  -8.5616  -8.5572  -8.5445  -8.5418
    -8.5327  -8.5311  -8.5274  -8.5228  -8.5172  -8.5125  -8.4976  -8.4943
    -8.4888  -8.4873  -8.4829  -8.4809  -5.4536  -4.6525  -4.4549  -4.0713
    -0.1283   0.4076   0.7290   2.0332   2.4456   3.1167   3.2242   4.1387
     4.2032   4.3103   4.4253   5.7748   8.3873   8.5516   9.2841   9.5808
     9.8845   9.9911  10.5633

          k = 0.0580 0.0580 0.0000 (  7635 PWs)   bands (ev):

    -8.6615  -8.6390  -8.6305  -8.6036  -8.5586  -8.5572  -8.5476  -8.5381
    -8.5352  -8.5312  -8.5251  -8.5224  -8.5186  -8.5127  -8.4974  -8.4933
    -8.4892  -8.4883  -8.4828  -8.4808  -5.4501  -4.6337  -4.4912  -4.0605
    -0.1500   0.4924   0.7054   1.9885   2.4392   3.1261   3.2312   4.0926
     4.1927   4.2973   4.4621   5.8028   8.4046   8.5718   9.4165   9.4768
     9.8566   9.9496  10.5916

          k = 0.0580 0.0580 0.0580 (  7661 PWs)   bands (ev):

    -8.6575  -8.6387  -8.6293  -8.6071  -8.5602  -8.5564  -8.5501  -8.5439
    -8.5408  -8.5350  -8.5319  -8.5223  -8.5145  -8.5124  -8.4938  -8.4906
    -8.4881  -8.4861  -8.4822  -8.4803  -5.1513  -4.5696  -4.4902  -4.3685
    -0.0678  -0.0140   0.2179   0.8865   3.5100   3.6046   3.7043   4.6059
     4.6498   4.8088   5.2407   5.4770   7.2816   8.2802   8.3476   8.5032
    10.4296  10.4935  10.6966

          k = 0.0580 0.0580-0.0580 (  7661 PWs)   bands (ev):

    -8.6578  -8.6380  -8.6298  -8.6068  -8.5592  -8.5555  -8.5549  -8.5445
    -8.5399  -8.5348  -8.5276  -8.5253  -8.5152  -8.5110  -8.4932  -8.4894
    -8.4883  -8.4867  -8.4828  -8.4807  -5.1550  -4.5876  -4.4754  -4.3556
    -0.1211  -0.0146   0.2238   0.9174   3.5159   3.6846   3.7059   4.5791
     4.6414   4.8012   5.2235   5.4842   7.2498   8.2616   8.3558   8.4718
    10.4109  10.5262  10.6271

          k = 0.0580-0.0580 0.0000 (  7635 PWs)   bands (ev):

    -8.6608  -8.6450  -8.6274  -8.5990  -8.5635  -8.5580  -8.5452  -8.5400
    -8.5344  -8.5299  -8.5246  -8.5235  -8.5170  -8.5128  -8.4977  -8.4934
    -8.4891  -8.4884  -8.4828  -8.4806  -5.4681  -4.5474  -4.5186  -4.0986
    -0.0179   0.3898   0.4827   2.1919   2.4972   3.1173   3.2109   4.1545
     4.2762   4.3737   4.4139   5.5937   8.2725   8.4902   9.3525   9.5231
     9.8398   9.8997  10.5109

          k = 0.0580-0.0580 0.0580 (  7661 PWs)   bands (ev):

    -8.6563  -8.6445  -8.6277  -8.6038  -8.5630  -8.5561  -8.5523  -8.5440
    -8.5411  -8.5332  -8.5298  -8.5253  -8.5132  -8.5098  -8.4938  -8.4896
    -8.4883  -8.4865  -8.4826  -8.4807  -5.1895  -4.5478  -4.4566  -4.3550
    -0.1473  -0.0381  -0.0016   1.1277   3.6730   3.8432   3.9074   4.5054
     4.5655   4.6194   5.2708   5.3230   7.0968   8.3091   8.3550   8.4103
    10.2811  10.3796  10.6294

          k = 0.0580-0.0580-0.0580 (  7661 PWs)   bands (ev):

    -8.6579  -8.6428  -8.6240  -8.6068  -8.5635  -8.5564  -8.5497  -8.5442
    -8.5396  -8.5354  -8.5295  -8.5237  -8.5139  -8.5126  -8.4937  -8.4906
    -8.4883  -8.4862  -8.4821  -8.4804  -5.1587  -4.5830  -4.4507  -4.3808
    -0.1183  -0.0303   0.2223   0.9332   3.5516   3.6242   3.7602   4.5551
     4.6538   4.7812   5.2042   5.4894   7.2504   8.2415   8.3707   8.5020
    10.3964  10.5136  10.6035

     the Fermi energy is     6.3410 ev

!    total energy              =    -764.07785721 Ry
     Harris-Foulkes estimate   =    -764.07785723 Ry
     estimated scf accuracy    <       0.00000002 Ry

     convergence has been achieved in   3 iterations

     Forces acting on atoms (Ry/au):
