
     Program PWSCF v.5.2.0 starts on 17Nov2016 at 12: 7:48 

     This program is part of the open-source Quantum ESPRESSO suite
     for quantum simulation of materials; please cite
         "P. Giannozzi et al., J. Phys.:Condens. Matter 21 395502 (2009);
          URL http://www.quantum-espresso.org", 
     in publications or presentations arising from this work. More details at
     http://www.quantum-espresso.org/quote

     Parallel version (MPI), running on    12 processors
     R & G space division:  proc/nbgrp/npool/nimage =      12
     Waiting for input...
     Reading input from standard input
     Message from routine read_cards :
     DEPRECATED: no units specified in CELL_PARAMETERS card

     Current dimensions of program PWSCF are:
     Max number of different atomic species (ntypx) = 10
     Max number of k-points (npk) =  40000
     Max angular momentum in pseudopotentials (lmaxx) =  3
               file In.pbe-dn-rrkjus_psl.0.2.2.UPF: wavefunction(s)  5S renormalized
               file Ga.pbe-dn-rrkjus_psl.0.2.UPF: wavefunction(s)  4S 3D renormalized

     Subspace diagonalization in iterative solution of the eigenvalue problem:
     a serial algorithm will be used

 
     Parallelization info
     --------------------
     sticks:   dense  smooth     PW     G-vecs:    dense   smooth      PW
     Min         201     201     49                 7553     7553     935
     Max         202     202     50                 7556     7556     940
     Sum        2417    2417    593                90649    90649   11245
 
     Generating pointlists ...
     new r_m :   0.4125 (alat units)  0.7796 (a.u.) for type    1
     new r_m :   0.4125 (alat units)  0.7796 (a.u.) for type    2
     new r_m :   0.4125 (alat units)  0.7796 (a.u.) for type    3


     bravais-lattice index     =            0
     lattice parameter (alat)  =       1.8900  a.u.
     unit-cell volume          =    1896.2390 (a.u.)^3
     number of atoms/cell      =           12
     number of atomic types    =            3
     number of electrons       =        92.00
     number of Kohn-Sham states=           60
     kinetic-energy cutoff     =      50.0000  Ry
     charge density cutoff     =     200.0000  Ry
     convergence threshold     =      1.0E-05
     mixing beta               =       0.4500
     number of iterations used =            8  plain     mixing
     Exchange-correlation      = PBE ( 1  4  3  4 0 0)
     nstep                     =         2500


     celldm(1)=   1.890000  celldm(2)=   0.000000  celldm(3)=   0.000000
     celldm(4)=   0.000000  celldm(5)=   0.000000  celldm(6)=   0.000000

     crystal axes: (cart. coord. in units of alat)
               a(1) = (   6.530543   0.000000   0.000000 )  
               a(2) = (   0.000000   6.530545   0.000000 )  
               a(3) = (   0.000000   0.000000   6.585806 )  

     reciprocal axes: (cart. coord. in units 2 pi/alat)
               b(1) = (  0.153127  0.000000  0.000000 )  
               b(2) = (  0.000000  0.153127  0.000000 )  
               b(3) = (  0.000000  0.000000  0.151842 )  


     PseudoPot. # 1 for In read from file:
     ../../PP/In.pbe-dn-rrkjus_psl.0.2.2.UPF
     MD5 check sum: f68fa0fea75495afd84d63a5db3ee050
     Pseudo is Ultrasoft + core correction, Zval = 13.0
     Generated using "atomic" code by A. Dal Corso  v.5.0.2 svn rev. 9415
     Using radial grid of 1241 points,  6 beta functions with: 
                l(1) =   0
                l(2) =   0
                l(3) =   1
                l(4) =   1
                l(5) =   2
                l(6) =   2
     Q(r) pseudized with 0 coefficients 


     PseudoPot. # 2 for Ga read from file:
     ../../PP/Ga.pbe-dn-rrkjus_psl.0.2.UPF
     MD5 check sum: 4e775fc617800c9e50cef8def119d1fe
     Pseudo is Ultrasoft + core correction, Zval = 13.0
     Generated using "atomic" code by A. Dal Corso  v.5.0.2 svn rev. 9415
     Using radial grid of 1205 points,  6 beta functions with: 
                l(1) =   0
                l(2) =   0
                l(3) =   1
                l(4) =   1
                l(5) =   2
                l(6) =   2
     Q(r) pseudized with 0 coefficients 


     PseudoPot. # 3 for As read from file:
     ../../PP/As.pbe-n-rrkjus_psl.0.2.UPF
     MD5 check sum: ca6deb6a0ec53d83fc9d84b8b738ea37
     Pseudo is Ultrasoft + core correction, Zval =  5.0
     Generated using "atomic" code by A. Dal Corso  v.5.0.2 svn rev. 9415
     Using radial grid of 1209 points,  4 beta functions with: 
                l(1) =   0
                l(2) =   0
                l(3) =   1
                l(4) =   1
     Q(r) pseudized with 0 coefficients 


     atomic species   valence    mass     pseudopotential
        In            13.00   114.81800     In( 1.00)
        Ga            13.00    69.72300     Ga( 1.00)
        As             5.00    74.92100     As( 1.00)

     Starting magnetic structure 
     atomic species   magnetization
        In           0.000
        Ga           0.000
        As           0.000

     No symmetry found



   Cartesian axes

     site n.     atom                  positions (alat units)
         1           In  tau(   1) = (  -0.0001347   0.0000569  -0.0002360  )
         2           In  tau(   2) = (   3.2654095   3.2652147  -0.0002353  )
         3           Ga  tau(   3) = (   3.2651968  -0.0014443   3.2932829  )
         4           Ga  tau(   4) = (   0.0000714   3.2667176   3.2933054  )
         5           As  tau(   5) = (   1.6326244   1.6326465   1.8655470  )
         6           As  tau(   6) = (   1.6326306   1.6326410   4.7201768  )
         7           As  tau(   7) = (   1.6326250   4.8978981   1.8643845  )
         8           As  tau(   8) = (   4.8979184   1.6326443   1.8657844  )
         9           As  tau(   9) = (   4.8979179   4.8979002   1.8646210  )
        10           As  tau(  10) = (   1.6326312   4.8979037   4.7213455  )
        11           As  tau(  11) = (   4.8979122   1.6326389   4.7199413  )
        12           As  tau(  12) = (   4.8979117   4.8979057   4.7211103  )

     number of k points=     2  gaussian smearing, width (Ry)=  0.0050
                       cart. coord. in units 2pi/alat
        k(    1) = (   0.0000000   0.0000000   0.0000000), wk =   1.0000000
        k(    2) = (   0.0000000   0.0000000   0.0000000), wk =   1.0000000

     Dense  grid:    90649 G-vectors     FFT dimensions: (  60,  60,  60)

     Largest allocated arrays     est. size (Mb)     dimensions
        Kohn-Sham Wavefunctions         0.86 Mb     (     940,   60)
        NL pseudopotentials             1.95 Mb     (     940,  136)
        Each V/rho on FFT grid          0.55 Mb     (   18000,   2)
        Each G-vector array             0.06 Mb     (    7556)
        G-vector shells                 0.03 Mb     (    3488)
     Largest temporary arrays     est. size (Mb)     dimensions
        Auxiliary wavefunctions         3.44 Mb     (     940,  240)
        Each subspace H/S matrix        0.88 Mb     (     240,  240)
        Each <psi_i|beta_j> matrix      0.12 Mb     (     136,   60)
        Arrays for rho mixing           2.20 Mb     (   18000,    8)

     Check: negative/imaginary core charge=   -0.000002    0.000000

     Initial potential from superposition of free atoms

     starting charge   91.98476, renormalised to   92.00000
     Starting wfc are   68 randomized atomic wfcs

     total cpu time spent up to now is        1.5 secs

     per-process dynamical memory:    40.7 Mb

     Self-consistent Calculation

     iteration #  1     ecut=    50.00 Ry     beta=0.45
     Davidson diagonalization with overlap
     ethr =  1.00E-02,  avg # of iterations =  3.0

     Threshold (ethr) on eigenvalues was too large:
     Diagonalizing with lowered threshold

     Davidson diagonalization with overlap
     ethr =  1.14E-04,  avg # of iterations =  4.0
 
     Magnetic moment per site:
     atom:    1    charge:    3.5984    magn:    0.0000    constr:    0.0000
     atom:    2    charge:    3.5984    magn:    0.0000    constr:    0.0000
     atom:    3    charge:    6.0681    magn:   -0.0000    constr:    0.0000
     atom:    4    charge:    6.0682    magn:    0.0000    constr:    0.0000
     atom:    5    charge:    0.1297    magn:    0.0000    constr:    0.0000
     atom:    6    charge:    0.1298    magn:    0.0000    constr:    0.0000
     atom:    7    charge:    0.1297    magn:   -0.0000    constr:    0.0000
     atom:    8    charge:    0.1297    magn:   -0.0000    constr:    0.0000
     atom:    9    charge:    0.1298    magn:    0.0000    constr:    0.0000
     atom:   10    charge:    0.1298    magn:   -0.0000    constr:    0.0000
     atom:   11    charge:    0.1297    magn:    0.0000    constr:    0.0000
     atom:   12    charge:    0.1298    magn:    0.0000    constr:    0.0000

     total cpu time spent up to now is        2.5 secs

     total energy              =    -780.59756977 Ry
     Harris-Foulkes estimate   =    -780.63462585 Ry
     estimated scf accuracy    <       0.11060148 Ry

     total magnetization       =     0.00 Bohr mag/cell
     absolute magnetization    =     0.01 Bohr mag/cell

     iteration #  2     ecut=    50.00 Ry     beta=0.45
     Davidson diagonalization with overlap
     ethr =  1.20E-04,  avg # of iterations =  2.0
 
     Magnetic moment per site:
     atom:    1    charge:    3.5908    magn:    0.0000    constr:    0.0000
     atom:    2    charge:    3.5908    magn:   -0.0000    constr:    0.0000
     atom:    3    charge:    6.0676    magn:   -0.0000    constr:    0.0000
     atom:    4    charge:    6.0676    magn:    0.0000    constr:    0.0000
     atom:    5    charge:    0.1281    magn:    0.0000    constr:    0.0000
     atom:    6    charge:    0.1281    magn:   -0.0000    constr:    0.0000
     atom:    7    charge:    0.1281    magn:    0.0000    constr:    0.0000
     atom:    8    charge:    0.1281    magn:   -0.0000    constr:    0.0000
     atom:    9    charge:    0.1281    magn:   -0.0000    constr:    0.0000
     atom:   10    charge:    0.1281    magn:    0.0000    constr:    0.0000
     atom:   11    charge:    0.1281    magn:    0.0000    constr:    0.0000
     atom:   12    charge:    0.1281    magn:   -0.0000    constr:    0.0000

     total cpu time spent up to now is        3.0 secs

     total energy              =    -780.60344615 Ry
     Harris-Foulkes estimate   =    -780.60840141 Ry
     estimated scf accuracy    <       0.01564248 Ry

     total magnetization       =    -0.00 Bohr mag/cell
     absolute magnetization    =     0.00 Bohr mag/cell

     iteration #  3     ecut=    50.00 Ry     beta=0.45
     Davidson diagonalization with overlap
     ethr =  1.70E-05,  avg # of iterations =  3.0
 
     Magnetic moment per site:
     atom:    1    charge:    3.5921    magn:    0.0000    constr:    0.0000
     atom:    2    charge:    3.5921    magn:   -0.0000    constr:    0.0000
     atom:    3    charge:    6.0664    magn:   -0.0000    constr:    0.0000
     atom:    4    charge:    6.0664    magn:    0.0000    constr:    0.0000
     atom:    5    charge:    0.1277    magn:    0.0000    constr:    0.0000
     atom:    6    charge:    0.1277    magn:    0.0000    constr:    0.0000
     atom:    7    charge:    0.1277    magn:    0.0000    constr:    0.0000
     atom:    8    charge:    0.1277    magn:    0.0000    constr:    0.0000
     atom:    9    charge:    0.1277    magn:   -0.0000    constr:    0.0000
     atom:   10    charge:    0.1277    magn:    0.0000    constr:    0.0000
     atom:   11    charge:    0.1277    magn:    0.0000    constr:    0.0000
     atom:   12    charge:    0.1277    magn:   -0.0000    constr:    0.0000

     total cpu time spent up to now is        3.5 secs

     total energy              =    -780.60505467 Ry
     Harris-Foulkes estimate   =    -780.60880660 Ry
     estimated scf accuracy    <       0.01475648 Ry

     total magnetization       =    -0.00 Bohr mag/cell
     absolute magnetization    =     0.00 Bohr mag/cell

     iteration #  4     ecut=    50.00 Ry     beta=0.45
     Davidson diagonalization with overlap
     ethr =  1.60E-05,  avg # of iterations =  2.0
 
     Magnetic moment per site:
     atom:    1    charge:    3.5923    magn:    0.0000    constr:    0.0000
     atom:    2    charge:    3.5923    magn:   -0.0000    constr:    0.0000
     atom:    3    charge:    6.0688    magn:   -0.0000    constr:    0.0000
     atom:    4    charge:    6.0688    magn:    0.0000    constr:    0.0000
     atom:    5    charge:    0.1274    magn:    0.0000    constr:    0.0000
     atom:    6    charge:    0.1274    magn:    0.0000    constr:    0.0000
     atom:    7    charge:    0.1274    magn:    0.0000    constr:    0.0000
     atom:    8    charge:    0.1274    magn:    0.0000    constr:    0.0000
     atom:    9    charge:    0.1274    magn:   -0.0000    constr:    0.0000
     atom:   10    charge:    0.1274    magn:    0.0000    constr:    0.0000
     atom:   11    charge:    0.1274    magn:    0.0000    constr:    0.0000
     atom:   12    charge:    0.1274    magn:    0.0000    constr:    0.0000

     total cpu time spent up to now is        4.2 secs

     total energy              =    -780.60655038 Ry
     Harris-Foulkes estimate   =    -780.60660765 Ry
     estimated scf accuracy    <       0.00102980 Ry

     total magnetization       =    -0.00 Bohr mag/cell
     absolute magnetization    =     0.00 Bohr mag/cell

     iteration #  5     ecut=    50.00 Ry     beta=0.45
     Davidson diagonalization with overlap
     ethr =  1.12E-06,  avg # of iterations =  2.0
 
     Magnetic moment per site:
     atom:    1    charge:    3.5935    magn:    0.0000    constr:    0.0000
     atom:    2    charge:    3.5935    magn:   -0.0000    constr:    0.0000
     atom:    3    charge:    6.0701    magn:   -0.0000    constr:    0.0000
     atom:    4    charge:    6.0702    magn:    0.0000    constr:    0.0000
     atom:    5    charge:    0.1273    magn:    0.0000    constr:    0.0000
     atom:    6    charge:    0.1274    magn:    0.0000    constr:    0.0000
     atom:    7    charge:    0.1274    magn:    0.0000    constr:    0.0000
     atom:    8    charge:    0.1274    magn:    0.0000    constr:    0.0000
     atom:    9    charge:    0.1274    magn:    0.0000    constr:    0.0000
     atom:   10    charge:    0.1274    magn:    0.0000    constr:    0.0000
     atom:   11    charge:    0.1274    magn:    0.0000    constr:    0.0000
     atom:   12    charge:    0.1274    magn:    0.0000    constr:    0.0000

     total cpu time spent up to now is        4.8 secs

     total energy              =    -780.60664929 Ry
     Harris-Foulkes estimate   =    -780.60666501 Ry
     estimated scf accuracy    <       0.00018833 Ry

     total magnetization       =    -0.00 Bohr mag/cell
     absolute magnetization    =     0.00 Bohr mag/cell

     iteration #  6     ecut=    50.00 Ry     beta=0.45
     Davidson diagonalization with overlap
     ethr =  2.05E-07,  avg # of iterations =  2.0
 
     Magnetic moment per site:
     atom:    1    charge:    3.5937    magn:    0.0000    constr:    0.0000
     atom:    2    charge:    3.5937    magn:   -0.0000    constr:    0.0000
     atom:    3    charge:    6.0704    magn:   -0.0000    constr:    0.0000
     atom:    4    charge:    6.0703    magn:    0.0000    constr:    0.0000
     atom:    5    charge:    0.1274    magn:    0.0000    constr:    0.0000
     atom:    6    charge:    0.1274    magn:    0.0000    constr:    0.0000
     atom:    7    charge:    0.1274    magn:    0.0000    constr:    0.0000
     atom:    8    charge:    0.1274    magn:    0.0000    constr:    0.0000
     atom:    9    charge:    0.1274    magn:    0.0000    constr:    0.0000
     atom:   10    charge:    0.1274    magn:    0.0000    constr:    0.0000
     atom:   11    charge:    0.1274    magn:    0.0000    constr:    0.0000
     atom:   12    charge:    0.1274    magn:    0.0000    constr:    0.0000

     total cpu time spent up to now is        5.3 secs

     total energy              =    -780.60665321 Ry
     Harris-Foulkes estimate   =    -780.60669101 Ry
     estimated scf accuracy    <       0.00014686 Ry

     total magnetization       =    -0.00 Bohr mag/cell
     absolute magnetization    =     0.00 Bohr mag/cell

     iteration #  7     ecut=    50.00 Ry     beta=0.45
     Davidson diagonalization with overlap
     ethr =  1.60E-07,  avg # of iterations =  2.0
 
     Magnetic moment per site:
     atom:    1    charge:    3.5938    magn:    0.0000    constr:    0.0000
     atom:    2    charge:    3.5938    magn:   -0.0000    constr:    0.0000
     atom:    3    charge:    6.0706    magn:   -0.0000    constr:    0.0000
     atom:    4    charge:    6.0707    magn:   -0.0000    constr:    0.0000
     atom:    5    charge:    0.1274    magn:    0.0000    constr:    0.0000
     atom:    6    charge:    0.1274    magn:    0.0000    constr:    0.0000
     atom:    7    charge:    0.1274    magn:    0.0000    constr:    0.0000
     atom:    8    charge:    0.1274    magn:    0.0000    constr:    0.0000
     atom:    9    charge:    0.1274    magn:   -0.0000    constr:    0.0000
     atom:   10    charge:    0.1274    magn:    0.0000    constr:    0.0000
     atom:   11    charge:    0.1274    magn:    0.0000    constr:    0.0000
     atom:   12    charge:    0.1274    magn:    0.0000    constr:    0.0000

     total cpu time spent up to now is        5.7 secs

     total energy              =    -780.60667395 Ry
     Harris-Foulkes estimate   =    -780.60668041 Ry
     estimated scf accuracy    <       0.00003261 Ry

     total magnetization       =    -0.00 Bohr mag/cell
     absolute magnetization    =     0.00 Bohr mag/cell

     iteration #  8     ecut=    50.00 Ry     beta=0.45
     Davidson diagonalization with overlap
     ethr =  3.54E-08,  avg # of iterations =  2.0
 
     Magnetic moment per site:
     atom:    1    charge:    3.5939    magn:    0.0000    constr:    0.0000
     atom:    2    charge:    3.5939    magn:   -0.0000    constr:    0.0000
     atom:    3    charge:    6.0706    magn:   -0.0000    constr:    0.0000
     atom:    4    charge:    6.0707    magn:   -0.0000    constr:    0.0000
     atom:    5    charge:    0.1274    magn:    0.0000    constr:    0.0000
     atom:    6    charge:    0.1274    magn:    0.0000    constr:    0.0000
     atom:    7    charge:    0.1274    magn:   -0.0000    constr:    0.0000
     atom:    8    charge:    0.1274    magn:    0.0000    constr:    0.0000
     atom:    9    charge:    0.1274    magn:   -0.0000    constr:    0.0000
     atom:   10    charge:    0.1274    magn:   -0.0000    constr:    0.0000
     atom:   11    charge:    0.1274    magn:    0.0000    constr:    0.0000
     atom:   12    charge:    0.1274    magn:    0.0000    constr:    0.0000

     total cpu time spent up to now is        6.2 secs

     total energy              =    -780.60667796 Ry
     Harris-Foulkes estimate   =    -780.60668000 Ry
     estimated scf accuracy    <       0.00001058 Ry

     total magnetization       =    -0.00 Bohr mag/cell
     absolute magnetization    =     0.00 Bohr mag/cell

     iteration #  9     ecut=    50.00 Ry     beta=0.45
     Davidson diagonalization with overlap
     ethr =  1.15E-08,  avg # of iterations =  2.0
 
     Magnetic moment per site:
     atom:    1    charge:    3.5939    magn:   -0.0000    constr:    0.0000
     atom:    2    charge:    3.5939    magn:   -0.0000    constr:    0.0000
     atom:    3    charge:    6.0705    magn:   -0.0000    constr:    0.0000
     atom:    4    charge:    6.0705    magn:   -0.0000    constr:    0.0000
     atom:    5    charge:    0.1274    magn:   -0.0000    constr:    0.0000
     atom:    6    charge:    0.1274    magn:   -0.0000    constr:    0.0000
     atom:    7    charge:    0.1274    magn:   -0.0000    constr:    0.0000
     atom:    8    charge:    0.1274    magn:   -0.0000    constr:    0.0000
     atom:    9    charge:    0.1274    magn:   -0.0000    constr:    0.0000
     atom:   10    charge:    0.1274    magn:   -0.0000    constr:    0.0000
     atom:   11    charge:    0.1274    magn:   -0.0000    constr:    0.0000
     atom:   12    charge:    0.1274    magn:   -0.0000    constr:    0.0000

     total cpu time spent up to now is        6.9 secs

     End of self-consistent calculation

 ------ SPIN UP ------------


          k = 0.0000 0.0000 0.0000 ( 11245 PWs)   bands (ev):

    -7.1878  -7.1111  -7.1111  -7.0959  -7.0705  -7.0705  -7.0509  -7.0410
    -7.0319  -7.0109  -6.2177  -6.2133  -6.1977  -6.1977  -6.1187  -6.1187
    -6.1054  -6.0968  -6.0775  -6.0408  -6.0083  -4.4981  -4.4981  -4.1513
    -2.7943  -2.4106  -2.4106  -1.4214  -0.6648   0.2210   0.8291   2.6514
     2.6514   2.6770   2.8520   2.8520   3.1796   4.9072   5.0565   5.0565
     5.8811   6.3623   7.0271   7.0272   7.1965   7.4386   7.5386   8.7637
     9.1999   9.2470   9.2470   9.4363   9.4363   9.9461  10.0476  10.0477
    10.1155  10.1272  10.2499  12.1215

 ------ SPIN DOWN ----------


          k = 0.0000 0.0000 0.0000 ( 11245 PWs)   bands (ev):

    -7.1878  -7.1111  -7.1111  -7.0959  -7.0705  -7.0705  -7.0509  -7.0410
    -7.0319  -7.0109  -6.2178  -6.2133  -6.1977  -6.1977  -6.1187  -6.1187
    -6.1054  -6.0968  -6.0775  -6.0408  -6.0083  -4.4981  -4.4981  -4.1513
    -2.7943  -2.4106  -2.4106  -1.4214  -0.6649   0.2209   0.8291   2.6514
     2.6514   2.6770   2.8519   2.8519   3.1796   4.9071   5.0565   5.0565
     5.8811   6.3622   7.0271   7.0271   7.1965   7.4386   7.5385   8.7637
     9.1999   9.2470   9.2470   9.4363   9.4363   9.9460  10.0476  10.0476
    10.1154  10.1272  10.2499  12.1215

     the Fermi energy is     7.4886 ev

!    total energy              =    -780.60667859 Ry
     Harris-Foulkes estimate   =    -780.60667910 Ry
     estimated scf accuracy    <       0.00000148 Ry

     total magnetization       =    -0.00 Bohr mag/cell
     absolute magnetization    =     0.00 Bohr mag/cell

     convergence has been achieved in   9 iterations

     Forces acting on atoms (Ry/au):

     atom    1 type  1   force =    -0.00000155    0.00007894    0.00005196
     atom    2 type  1   force =     0.00001650   -0.00007302    0.00006197
     atom    3 type  2   force =    -0.00000318    0.00017654   -0.00015514
     atom    4 type  2   force =    -0.00006372   -0.00014683   -0.00001928
     atom    5 type  3   force =    -0.00000590    0.00000627    0.02208683
     atom    6 type  3   force =     0.00000110    0.00000004   -0.02207454
     atom    7 type  3   force =    -0.00000271   -0.00001154    0.02204417
     atom    8 type  3   force =     0.00001397    0.00000091    0.02212562
     atom    9 type  3   force =     0.00001457   -0.00001095    0.02207770
     atom   10 type  3   force =     0.00000325   -0.00000778   -0.02202877
     atom   11 type  3   force =     0.00001169   -0.00000208   -0.02210944
     atom   12 type  3   force =     0.00001600   -0.00001050   -0.02206107

     Total force =     0.062441     Total SCF correction =     0.000789

     Molecular Dynamics Calculation

     Starting temperature  =   300.00 K

     temperature is controlled by Andersen thermostat
     Collision frequency = 1.0000/timestep
     mass In               =   114.82
     mass Ga               =    69.72
     mass As               =    74.92
     Time step             =    20.67 a.u.,  1.0000 femto-seconds

     Entering Dynamics:    iteration =     1
                           time      =   0.0010 pico-seconds


     Andersen thermostat:   12 collisions

ATOMIC_POSITIONS (alat)
In       0.000048167   0.003168357  -0.000919477
In       3.264300326   3.265147774   0.001854521
Ga       3.265389230   0.001004645   3.292010293
Ga       0.001230637   3.265240909   3.293988350
As       1.628408636   1.632742868   1.864803939
As       1.633480220   1.629439090   4.715745051
As       1.632630526   4.898908123   1.866987190
As       4.901211442   1.630948436   1.866810789
As       4.899021032   4.896073144   1.862790910
As       1.633704808   4.897973323   4.722085511
As       4.897510510   1.633442651   4.720470070
As       4.896365923   4.897080157   4.721610836


     kinetic energy (Ekin) =     0.03433772 Ry
     temperature           =   328.57522467 K 
     Ekin + Etot (const)   =  -780.57234086 Ry

     Linear momentum :    0.0000000000   -0.0000000000   -0.0000000000

     Writing output data file x.save
     NEW-OLD atomic charge density approx. for the potential

     Check: negative/imaginary core charge=   -0.000002    0.000000

     total cpu time spent up to now is        8.5 secs

     per-process dynamical memory:    80.0 Mb

     Self-consistent Calculation

     iteration #  1     ecut=    50.00 Ry     beta=0.45
     Davidson diagonalization with overlap
     ethr =  1.00E-06,  avg # of iterations =  4.0

     Threshold (ethr) on eigenvalues was too large:
     Diagonalizing with lowered threshold

     Davidson diagonalization with overlap
     ethr =  2.98E-08,  avg # of iterations =  3.0
 
     Magnetic moment per site:
     atom:    1    charge:    3.5936    magn:   -0.0000    constr:    0.0000
     atom:    2    charge:    3.5937    magn:   -0.0000    constr:    0.0000
     atom:    3    charge:    6.0705    magn:   -0.0000    constr:    0.0000
     atom:    4    charge:    6.0706    magn:   -0.0000    constr:    0.0000
     atom:    5    charge:    0.1274    magn:   -0.0000    constr:    0.0000
     atom:    6    charge:    0.1275    magn:   -0.0000    constr:    0.0000
     atom:    7    charge:    0.1274    magn:   -0.0000    constr:    0.0000
     atom:    8    charge:    0.1274    magn:   -0.0000    constr:    0.0000
     atom:    9    charge:    0.1274    magn:   -0.0000    constr:    0.0000
     atom:   10    charge:    0.1274    magn:   -0.0000    constr:    0.0000
     atom:   11    charge:    0.1274    magn:   -0.0000    constr:    0.0000
     atom:   12    charge:    0.1274    magn:   -0.0000    constr:    0.0000

     total cpu time spent up to now is        9.6 secs

     total energy              =    -780.60682959 Ry
     Harris-Foulkes estimate   =    -780.60684352 Ry
     estimated scf accuracy    <       0.00002828 Ry

     total magnetization       =    -0.00 Bohr mag/cell
     absolute magnetization    =     0.00 Bohr mag/cell

     iteration #  2     ecut=    50.00 Ry     beta=0.45
     Davidson diagonalization with overlap
     ethr =  3.07E-08,  avg # of iterations =  2.5
 
     Magnetic moment per site:
     atom:    1    charge:    3.5937    magn:   -0.0000    constr:    0.0000
     atom:    2    charge:    3.5937    magn:   -0.0000    constr:    0.0000
     atom:    3    charge:    6.0705    magn:   -0.0000    constr:    0.0000
     atom:    4    charge:    6.0705    magn:   -0.0000    constr:    0.0000
     atom:    5    charge:    0.1274    magn:   -0.0000    constr:    0.0000
     atom:    6    charge:    0.1274    magn:   -0.0000    constr:    0.0000
     atom:    7    charge:    0.1274    magn:   -0.0000    constr:    0.0000
     atom:    8    charge:    0.1274    magn:   -0.0000    constr:    0.0000
     atom:    9    charge:    0.1274    magn:   -0.0000    constr:    0.0000
     atom:   10    charge:    0.1274    magn:   -0.0000    constr:    0.0000
     atom:   11    charge:    0.1274    magn:   -0.0000    constr:    0.0000
     atom:   12    charge:    0.1274    magn:   -0.0000    constr:    0.0000

     total cpu time spent up to now is       10.1 secs

     total energy              =    -780.60682896 Ry
     Harris-Foulkes estimate   =    -780.60684985 Ry
     estimated scf accuracy    <       0.00008239 Ry

     total magnetization       =    -0.00 Bohr mag/cell
     absolute magnetization    =     0.00 Bohr mag/cell

     iteration #  3     ecut=    50.00 Ry     beta=0.45
     Davidson diagonalization with overlap
     ethr =  3.07E-08,  avg # of iterations =  2.0
 
     Magnetic moment per site:
     atom:    1    charge:    3.5937    magn:   -0.0000    constr:    0.0000
     atom:    2    charge:    3.5937    magn:   -0.0000    constr:    0.0000
     atom:    3    charge:    6.0704    magn:   -0.0000    constr:    0.0000
     atom:    4    charge:    6.0706    magn:   -0.0000    constr:    0.0000
     atom:    5    charge:    0.1274    magn:   -0.0000    constr:    0.0000
     atom:    6    charge:    0.1275    magn:   -0.0000    constr:    0.0000
     atom:    7    charge:    0.1274    magn:   -0.0000    constr:    0.0000
     atom:    8    charge:    0.1274    magn:   -0.0000    constr:    0.0000
     atom:    9    charge:    0.1274    magn:   -0.0000    constr:    0.0000
     atom:   10    charge:    0.1274    magn:   -0.0000    constr:    0.0000
     atom:   11    charge:    0.1274    magn:   -0.0000    constr:    0.0000
     atom:   12    charge:    0.1274    magn:   -0.0000    constr:    0.0000

     total cpu time spent up to now is       10.9 secs

     End of self-consistent calculation

 ------ SPIN UP ------------


          k = 0.0000 0.0000 0.0000 ( 11245 PWs)   bands (ev):

    -7.1922  -7.1153  -7.1152  -7.1002  -7.0747  -7.0746  -7.0555  -7.0451
    -7.0363  -7.0150  -6.2179  -6.2091  -6.1936  -6.1936  -6.1145  -6.1144
    -6.1011  -6.0928  -6.0733  -6.0367  -6.0050  -4.4996  -4.4990  -4.1505
    -2.7955  -2.4099  -2.4096  -1.4205  -0.6678   0.2219   0.8316   2.6501
     2.6505   2.6761   2.8522   2.8523   3.1816   4.9068   5.0569   5.0570
     5.8789   6.3617   7.0266   7.0276   7.1978   7.4401   7.5411   8.7621
     9.2000   9.2476   9.2478   9.4377   9.4387   9.9460  10.0475  10.0490
    10.1163  10.1289  10.2522  12.1213

 ------ SPIN DOWN ----------


          k = 0.0000 0.0000 0.0000 ( 11245 PWs)   bands (ev):

    -7.1922  -7.1153  -7.1153  -7.1003  -7.0747  -7.0747  -7.0555  -7.0451
    -7.0363  -7.0150  -6.2180  -6.2092  -6.1936  -6.1936  -6.1145  -6.1144
    -6.1011  -6.0929  -6.0733  -6.0367  -6.0051  -4.4997  -4.4990  -4.1506
    -2.7955  -2.4100  -2.4097  -1.4205  -0.6679   0.2218   0.8315   2.6501
     2.6504   2.6760   2.8521   2.8522   3.1816   4.9068   5.0569   5.0569
     5.8788   6.3617   7.0265   7.0276   7.1978   7.4400   7.5408   8.7621
     9.2000   9.2475   9.2477   9.4377   9.4387   9.9459  10.0473  10.0489
    10.1162  10.1289  10.2521  12.1213

     the Fermi energy is     7.4905 ev

!    total energy              =    -780.60683700 Ry
     Harris-Foulkes estimate   =    -780.60684000 Ry
     estimated scf accuracy    <       0.00000460 Ry

     total magnetization       =    -0.00 Bohr mag/cell
     absolute magnetization    =     0.00 Bohr mag/cell

     convergence has been achieved in   3 iterations

     Forces acting on atoms (Ry/au):

     atom    1 type  1   force =     0.00010144   -0.00087844   -0.00041103
     atom    2 type  1   force =    -0.00020491   -0.00068350   -0.00004115
     atom    3 type  2   force =     0.00061934   -0.00065389   -0.00093535
     atom    4 type  2   force =    -0.00047887    0.00045617    0.00066511
     atom    5 type  3   force =    -0.00087040    0.00112121    0.02234625
     atom    6 type  3   force =    -0.00012800    0.00048616   -0.02206279
     atom    7 type  3   force =    -0.00043443   -0.00051473    0.02201129
     atom    8 type  3   force =     0.00068477    0.00079522    0.02226586
     atom    9 type  3   force =     0.00079830   -0.00083735    0.02193484
     atom   10 type  3   force =    -0.00043876   -0.00012818   -0.02189803
     atom   11 type  3   force =     0.00021500    0.00098695   -0.02206258
     atom   12 type  3   force =     0.00013653   -0.00014964   -0.02181242

     Total force =     0.062450     Total SCF correction =     0.004541

     Entering Dynamics:    iteration =     2
                           time      =   0.0020 pico-seconds


     Andersen thermostat:   12 collisions

ATOMIC_POSITIONS (alat)
In       0.001433782   0.006352829   0.000191672
In       3.263610824   3.263556581   0.002189257
Ga       3.264663447  -0.001200907   3.289878797
Ga      -0.000672596   3.265123030   3.292346225
As       1.626576028   1.631919705   1.865124524
As       1.634915175   1.628821923   4.719251721
As       1.632819823   4.898335343   1.868716874
As       4.903906438   1.631695922   1.865572355
As       4.899845018   4.896715814   1.863706374
As       1.634283858   4.897236236   4.719658438
As       4.895742478   1.631511843   4.720821489
As       4.895624088   4.900091505   4.719748478


     kinetic energy (Ekin) =     0.02880335 Ry
     temperature           =   275.61723143 K 
     Ekin + Etot (const)   =  -780.57803365 Ry
     Message from routine dynamics:
     Total linear momentum <> 0

     Linear momentum :    3.6750705897    5.4938465518   -3.7083383968

     Writing output data file x.save
     NEW-OLD atomic charge density approx. for the potential

     Check: negative/imaginary core charge=   -0.000002    0.000000

     total cpu time spent up to now is       12.4 secs

     per-process dynamical memory:    80.0 Mb

     Self-consistent Calculation

     iteration #  1     ecut=    50.00 Ry     beta=0.45
     Davidson diagonalization with overlap
     ethr =  1.00E-06,  avg # of iterations =  4.0
 
     Magnetic moment per site:
     atom:    1    charge:    3.5933    magn:   -0.0000    constr:    0.0000
     atom:    2    charge:    3.5936    magn:   -0.0000    constr:    0.0000
     atom:    3    charge:    6.0706    magn:   -0.0000    constr:    0.0000
     atom:    4    charge:    6.0703    magn:   -0.0000    constr:    0.0000
     atom:    5    charge:    0.1274    magn:   -0.0000    constr:    0.0000
     atom:    6    charge:    0.1274    magn:   -0.0000    constr:    0.0000
     atom:    7    charge:    0.1275    magn:   -0.0000    constr:    0.0000
     atom:    8    charge:    0.1275    magn:   -0.0000    constr:    0.0000
     atom:    9    charge:    0.1274    magn:   -0.0000    constr:    0.0000
     atom:   10    charge:    0.1274    magn:   -0.0000    constr:    0.0000
     atom:   11    charge:    0.1274    magn:   -0.0000    constr:    0.0000
     atom:   12    charge:    0.1274    magn:   -0.0000    constr:    0.0000

     total cpu time spent up to now is       13.1 secs

     total energy              =    -780.60678128 Ry
     Harris-Foulkes estimate   =    -780.60695573 Ry
     estimated scf accuracy    <       0.00030674 Ry

     total magnetization       =    -0.00 Bohr mag/cell
     absolute magnetization    =     0.00 Bohr mag/cell

     iteration #  2     ecut=    50.00 Ry     beta=0.45
     Davidson diagonalization with overlap
     ethr =  3.33E-07,  avg # of iterations =  3.0
 
     Magnetic moment per site:
     atom:    1    charge:    3.5933    magn:   -0.0000    constr:    0.0000
     atom:    2    charge:    3.5936    magn:   -0.0000    constr:    0.0000
     atom:    3    charge:    6.0704    magn:   -0.0000    constr:    0.0000
     atom:    4    charge:    6.0706    magn:   -0.0000    constr:    0.0000
     atom:    5    charge:    0.1274    magn:   -0.0000    constr:    0.0000
     atom:    6    charge:    0.1274    magn:   -0.0000    constr:    0.0000
     atom:    7    charge:    0.1274    magn:   -0.0000    constr:    0.0000
     atom:    8    charge:    0.1275    magn:   -0.0000    constr:    0.0000
     atom:    9    charge:    0.1274    magn:   -0.0000    constr:    0.0000
     atom:   10    charge:    0.1274    magn:   -0.0000    constr:    0.0000
     atom:   11    charge:    0.1274    magn:   -0.0000    constr:    0.0000
     atom:   12    charge:    0.1274    magn:   -0.0000    constr:    0.0000

     total cpu time spent up to now is       13.6 secs

     total energy              =    -780.60672812 Ry
     Harris-Foulkes estimate   =    -780.60714194 Ry
     estimated scf accuracy    <       0.00207797 Ry

     total magnetization       =    -0.00 Bohr mag/cell
     absolute magnetization    =     0.00 Bohr mag/cell

     iteration #  3     ecut=    50.00 Ry     beta=0.45
     Davidson diagonalization with overlap
     ethr =  3.33E-07,  avg # of iterations =  2.0
 
     Magnetic moment per site:
     atom:    1    charge:    3.5934    magn:   -0.0000    constr:    0.0000
     atom:    2    charge:    3.5937    magn:   -0.0000    constr:    0.0000
     atom:    3    charge:    6.0704    magn:   -0.0000    constr:    0.0000
     atom:    4    charge:    6.0705    magn:   -0.0000    constr:    0.0000
     atom:    5    charge:    0.1275    magn:   -0.0000    constr:    0.0000
     atom:    6    charge:    0.1274    magn:   -0.0000    constr:    0.0000
     atom:    7    charge:    0.1274    magn:   -0.0000    constr:    0.0000
     atom:    8    charge:    0.1275    magn:   -0.0000    constr:    0.0000
     atom:    9    charge:    0.1274    magn:   -0.0000    constr:    0.0000
     atom:   10    charge:    0.1274    magn:   -0.0000    constr:    0.0000
     atom:   11    charge:    0.1274    magn:   -0.0000    constr:    0.0000
     atom:   12    charge:    0.1274    magn:   -0.0000    constr:    0.0000

     total cpu time spent up to now is       14.4 secs

     End of self-consistent calculation

 ------ SPIN UP ------------


          k = 0.0000 0.0000 0.0000 ( 11245 PWs)   bands (ev):

    -7.1931  -7.1161  -7.1159  -7.1011  -7.0755  -7.0753  -7.0562  -7.0460
    -7.0370  -7.0158  -6.2181  -6.2079  -6.1925  -6.1922  -6.1130  -6.1129
    -6.0998  -6.0919  -6.0717  -6.0354  -6.0038  -4.5011  -4.4985  -4.1500
    -2.7959  -2.4097  -2.4086  -1.4197  -0.6688   0.2224   0.8327   2.6493
     2.6506   2.6761   2.8524   2.8525   3.1826   4.9068   5.0573   5.0575
     5.8782   6.3611   7.0248   7.0295   7.1988   7.4406   7.5427   8.7617
     9.2001   9.2479   9.2486   9.4374   9.4413   9.9464  10.0457  10.0510
    10.1172  10.1300  10.2536  12.1212

 ------ SPIN DOWN ----------


          k = 0.0000 0.0000 0.0000 ( 11245 PWs)   bands (ev):

    -7.1932  -7.1162  -7.1160  -7.1012  -7.0756  -7.0754  -7.0563  -7.0461
    -7.0371  -7.0158  -6.2182  -6.2080  -6.1925  -6.1922  -6.1131  -6.1130
    -6.0999  -6.0920  -6.0718  -6.0355  -6.0039  -4.5012  -4.4986  -4.1501
    -2.7960  -2.4098  -2.4087  -1.4198  -0.6691   0.2221   0.8325   2.6491
     2.6504   2.6759   2.8522   2.8524   3.1825   4.9066   5.0572   5.0574
     5.8780   6.3610   7.0247   7.0294   7.1986   7.4403   7.5421   8.7615
     9.2001   9.2478   9.2485   9.4373   9.4412   9.9462  10.0453  10.0506
    10.1169  10.1300  10.2535  12.1212

     the Fermi energy is     7.4914 ev

!    total energy              =    -780.60692313 Ry
     Harris-Foulkes estimate   =    -780.60692533 Ry
     estimated scf accuracy    <       0.00000361 Ry

     total magnetization       =    -0.00 Bohr mag/cell
     absolute magnetization    =     0.00 Bohr mag/cell

     convergence has been achieved in   3 iterations

     Forces acting on atoms (Ry/au):

     atom    1 type  1   force =     0.00002845   -0.00214743   -0.00005972
     atom    2 type  1   force =     0.00029951    0.00046103    0.00064649
     atom    3 type  2   force =     0.00043925   -0.00068413   -0.00151861
     atom    4 type  2   force =    -0.00033053    0.00056666    0.00019825
     atom    5 type  3   force =    -0.00023017    0.00047759    0.02263786
     atom    6 type  3   force =     0.00119625   -0.00035449   -0.02249563
     atom    7 type  3   force =     0.00011294   -0.00013177    0.02194918
     atom    8 type  3   force =    -0.00016777    0.00020519    0.02246225
     atom    9 type  3   force =    -0.00017036   -0.00027463    0.02161323
     atom   10 type  3   force =     0.00046725    0.00080576   -0.02180509
     atom   11 type  3   force =    -0.00095205   -0.00008182   -0.02223086
     atom   12 type  3   force =    -0.00069276    0.00115805   -0.02139734

     Total force =     0.062561     Total SCF correction =     0.005401

     Entering Dynamics:    iteration =     3
                           time      =   0.0030 pico-seconds


     Andersen thermostat:   12 collisions

ATOMIC_POSITIONS (alat)
In       0.001819319   0.005218752   0.000313300
In       3.261689244   3.261642453   0.003345863
Ga       3.265284068  -0.002847275   3.289879293
Ga       0.001483364   3.263632509   3.295446285
As       1.629128886   1.632749705   1.866152766
As       1.635406638   1.628096239   4.718526821
As       1.632722441   4.897817097   1.866575713
As       4.901153179   1.634662474   1.863464478
As       4.900157676   4.896977106   1.865917629
As       1.634072429   4.897388859   4.717687881
As       4.895744224   1.632307165   4.718109369
As       4.895097505   4.903920336   4.721321235


     kinetic energy (Ekin) =     0.02972181 Ry
     temperature           =   284.40592125 K 
     Ekin + Etot (const)   =  -780.57720132 Ry
     Message from routine dynamics:
     Total linear momentum <> 0

     Linear momentum :   -1.3212854732    1.2810859115  -11.3493970317

     Writing output data file x.save
     NEW-OLD atomic charge density approx. for the potential

     Check: negative/imaginary core charge=   -0.000002    0.000000

     total cpu time spent up to now is       16.0 secs

     per-process dynamical memory:    80.0 Mb

     Self-consistent Calculation

     iteration #  1     ecut=    50.00 Ry     beta=0.45
     Davidson diagonalization with overlap
     ethr =  1.00E-06,  avg # of iterations =  4.0

     Threshold (ethr) on eigenvalues was too large:
     Diagonalizing with lowered threshold

     Davidson diagonalization with overlap
     ethr =  3.76E-08,  avg # of iterations =  2.0
 
     Magnetic moment per site:
     atom:    1    charge:    3.5934    magn:   -0.0000    constr:    0.0000
     atom:    2    charge:    3.5933    magn:   -0.0000    constr:    0.0000
     atom:    3    charge:    6.0703    magn:   -0.0000    constr:    0.0000
     atom:    4    charge:    6.0704    magn:   -0.0000    constr:    0.0000
     atom:    5    charge:    0.1274    magn:   -0.0000    constr:    0.0000
     atom:    6    charge:    0.1274    magn:   -0.0000    constr:    0.0000
     atom:    7    charge:    0.1275    magn:   -0.0000    constr:    0.0000
     atom:    8    charge:    0.1274    magn:   -0.0000    constr:    0.0000
     atom:    9    charge:    0.1274    magn:   -0.0000    constr:    0.0000
     atom:   10    charge:    0.1274    magn:   -0.0000    constr:    0.0000
     atom:   11    charge:    0.1274    magn:   -0.0000    constr:    0.0000
     atom:   12    charge:    0.1274    magn:   -0.0000    constr:    0.0000

     total cpu time spent up to now is       17.2 secs

     total energy              =    -780.60704022 Ry
     Harris-Foulkes estimate   =    -780.60706130 Ry
     estimated scf accuracy    <       0.00003570 Ry

     total magnetization       =    -0.01 Bohr mag/cell
     absolute magnetization    =     0.01 Bohr mag/cell

     iteration #  2     ecut=    50.00 Ry     beta=0.45
     Davidson diagonalization with overlap
     ethr =  3.88E-08,  avg # of iterations =  3.0
 
     Magnetic moment per site:
     atom:    1    charge:    3.5934    magn:   -0.0000    constr:    0.0000
     atom:    2    charge:    3.5934    magn:   -0.0000    constr:    0.0000
     atom:    3    charge:    6.0703    magn:   -0.0000    constr:    0.0000
     atom:    4    charge:    6.0703    magn:   -0.0000    constr:    0.0000
     atom:    5    charge:    0.1275    magn:   -0.0000    constr:    0.0000
     atom:    6    charge:    0.1274    magn:   -0.0000    constr:    0.0000
     atom:    7    charge:    0.1274    magn:   -0.0000    constr:    0.0000
     atom:    8    charge:    0.1274    magn:   -0.0000    constr:    0.0000
     atom:    9    charge:    0.1274    magn:   -0.0000    constr:    0.0000
     atom:   10    charge:    0.1274    magn:   -0.0000    constr:    0.0000
     atom:   11    charge:    0.1274    magn:   -0.0000    constr:    0.0000
     atom:   12    charge:    0.1274    magn:   -0.0000    constr:    0.0000

     total cpu time spent up to now is       17.7 secs

     total energy              =    -780.60704164 Ry
     Harris-Foulkes estimate   =    -780.60707247 Ry
     estimated scf accuracy    <       0.00012347 Ry

     total magnetization       =    -0.01 Bohr mag/cell
     absolute magnetization    =     0.01 Bohr mag/cell

     iteration #  3     ecut=    50.00 Ry     beta=0.45
     Davidson diagonalization with overlap
     ethr =  3.88E-08,  avg # of iterations =  2.0
 
     Magnetic moment per site:
     atom:    1    charge:    3.5935    magn:   -0.0001    constr:    0.0000
     atom:    2    charge:    3.5934    magn:   -0.0001    constr:    0.0000
     atom:    3    charge:    6.0703    magn:   -0.0000    constr:    0.0000
     atom:    4    charge:    6.0703    magn:   -0.0000    constr:    0.0000
     atom:    5    charge:    0.1275    magn:   -0.0000    constr:    0.0000
     atom:    6    charge:    0.1274    magn:   -0.0000    constr:    0.0000
     atom:    7    charge:    0.1274    magn:   -0.0000    constr:    0.0000
     atom:    8    charge:    0.1274    magn:   -0.0000    constr:    0.0000
     atom:    9    charge:    0.1274    magn:   -0.0000    constr:    0.0000
     atom:   10    charge:    0.1274    magn:   -0.0000    constr:    0.0000
     atom:   11    charge:    0.1274    magn:   -0.0000    constr:    0.0000
     atom:   12    charge:    0.1274    magn:   -0.0000    constr:    0.0000

     total cpu time spent up to now is       18.2 secs

     End of self-consistent calculation

 ------ SPIN UP ------------


          k = 0.0000 0.0000 0.0000 ( 11245 PWs)   bands (ev):

    -7.1956  -7.1184  -7.1183  -7.1034  -7.0775  -7.0775  -7.0593  -7.0476
    -7.0396  -7.0176  -6.2180  -6.2045  -6.1888  -6.1887  -6.1096  -6.1095
    -6.0965  -6.0882  -6.0687  -6.0317  -6.0012  -4.5013  -4.4999  -4.1492
    -2.7967  -2.4086  -2.4081  -1.4189  -0.6707   0.2233   0.8345   2.6489
     2.6496   2.6758   2.8528   2.8529   3.1841   4.9067   5.0579   5.0580
     5.8769   6.3607   7.0262   7.0286   7.1997   7.4418   7.5450   8.7608
     9.2001   9.2488   9.2491   9.4400   9.4421   9.9464  10.0479  10.0502
    10.1158  10.1326  10.2554  12.1212

 ------ SPIN DOWN ----------


          k = 0.0000 0.0000 0.0000 ( 11245 PWs)   bands (ev):

    -7.1958  -7.1186  -7.1185  -7.1036  -7.0777  -7.0777  -7.0595  -7.0478
    -7.0398  -7.0178  -6.2183  -6.2046  -6.1890  -6.1889  -6.1098  -6.1097
    -6.0966  -6.0885  -6.0690  -6.0319  -6.0014  -4.5015  -4.5001  -4.1496
    -2.7969  -2.4089  -2.4084  -1.4192  -0.6713   0.2227   0.8341   2.6484
     2.6491   2.6752   2.8523   2.8525   3.1839   4.9064   5.0575   5.0576
     5.8763   6.3603   7.0258   7.0283   7.1994   7.4410   7.5432   8.7603
     9.2001   9.2485   9.2488   9.4398   9.4418   9.9458  10.0471  10.0493
    10.1152  10.1325  10.2551  12.1207

     the Fermi energy is     7.4928 ev

!    total energy              =    -780.60705502 Ry
     Harris-Foulkes estimate   =    -780.60705645 Ry
     estimated scf accuracy    <       0.00000226 Ry

     total magnetization       =    -0.01 Bohr mag/cell
     absolute magnetization    =     0.01 Bohr mag/cell

     convergence has been achieved in   3 iterations

     Forces acting on atoms (Ry/au):

     atom    1 type  1   force =    -0.00000579   -0.00071826   -0.00030176
     atom    2 type  1   force =     0.00030259    0.00071522   -0.00110761
     atom    3 type  2   force =     0.00006060    0.00092112   -0.00068783
     atom    4 type  2   force =     0.00027499    0.00010878    0.00055858
     atom    5 type  3   force =    -0.00043814   -0.00003460    0.02290014
     atom    6 type  3   force =     0.00159114   -0.00115481   -0.02247143
     atom    7 type  3   force =    -0.00041007   -0.00022179    0.02212165
     atom    8 type  3   force =    -0.00010045    0.00007216    0.02248557
     atom    9 type  3   force =     0.00020674   -0.00063724    0.02156294
     atom   10 type  3   force =     0.00068582    0.00047659   -0.02176110
     atom   11 type  3   force =    -0.00110108   -0.00055634   -0.02202238
     atom   12 type  3   force =    -0.00106636    0.00102917   -0.02127678

     Total force =     0.062561     Total SCF correction =     0.002978

     Entering Dynamics:    iteration =     4
                           time      =   0.0040 pico-seconds


     Andersen thermostat:   12 collisions

ATOMIC_POSITIONS (alat)
In       0.001520624   0.004117841  -0.000784263
In       3.263244244   3.263509639   0.001480985
Ga       3.262471554  -0.000717762   3.294298161
Ga       0.001132795   3.266269010   3.296757051
As       1.631074388   1.632058976   1.867349392
As       1.632581138   1.629112377   4.722839390
As       1.635208371   4.896444340   1.866093676
As       4.898314089   1.632111732   1.861405779
As       4.901223496   4.895145148   1.866645761
As       1.634979429   4.897804960   4.718076895
As       4.894248232   1.633068531   4.715652948
As       4.896872153   4.902563236   4.718899944


     kinetic energy (Ekin) =     0.04222624 Ry
     temperature           =   404.05991736 K 
     Ekin + Etot (const)   =  -780.56482877 Ry
     Message from routine dynamics:
     Total linear momentum <> 0

     Linear momentum :  -11.6479495207  -24.9699296004   -2.5852501722

     Writing output data file x.save
     NEW-OLD atomic charge density approx. for the potential

     Check: negative/imaginary core charge=   -0.000002    0.000000

     total cpu time spent up to now is       19.8 secs

     per-process dynamical memory:    80.0 Mb

     Self-consistent Calculation

     iteration #  1     ecut=    50.00 Ry     beta=0.45
     Davidson diagonalization with overlap
     ethr =  1.00E-06,  avg # of iterations =  4.0
 
     Magnetic moment per site:
     atom:    1    charge:    3.5935    magn:   -0.0001    constr:    0.0000
     atom:    2    charge:    3.5936    magn:   -0.0001    constr:    0.0000
     atom:    3    charge:    6.0707    magn:   -0.0001    constr:    0.0000
     atom:    4    charge:    6.0702    magn:   -0.0001    constr:    0.0000
     atom:    5    charge:    0.1274    magn:   -0.0000    constr:    0.0000
     atom:    6    charge:    0.1275    magn:   -0.0000    constr:    0.0000
     atom:    7    charge:    0.1274    magn:   -0.0000    constr:    0.0000
     atom:    8    charge:    0.1274    magn:   -0.0000    constr:    0.0000
     atom:    9    charge:    0.1274    magn:   -0.0000    constr:    0.0000
     atom:   10    charge:    0.1275    magn:   -0.0000    constr:    0.0000
     atom:   11    charge:    0.1275    magn:   -0.0000    constr:    0.0000
     atom:   12    charge:    0.1274    magn:   -0.0000    constr:    0.0000

     total cpu time spent up to now is       20.4 secs

     total energy              =    -780.60696176 Ry
     Harris-Foulkes estimate   =    -780.60703596 Ry
     estimated scf accuracy    <       0.00013254 Ry

     total magnetization       =    -0.02 Bohr mag/cell
     absolute magnetization    =     0.02 Bohr mag/cell

     iteration #  2     ecut=    50.00 Ry     beta=0.45
     Davidson diagonalization with overlap
     ethr =  1.44E-07,  avg # of iterations =  3.0
 
     Magnetic moment per site:
     atom:    1    charge:    3.5935    magn:   -0.0001    constr:    0.0000
     atom:    2    charge:    3.5936    magn:   -0.0001    constr:    0.0000
     atom:    3    charge:    6.0704    magn:   -0.0001    constr:    0.0000
     atom:    4    charge:    6.0703    magn:   -0.0001    constr:    0.0000
     atom:    5    charge:    0.1274    magn:   -0.0000    constr:    0.0000
     atom:    6    charge:    0.1275    magn:   -0.0000    constr:    0.0000
     atom:    7    charge:    0.1274    magn:   -0.0000    constr:    0.0000
     atom:    8    charge:    0.1274    magn:   -0.0000    constr:    0.0000
     atom:    9    charge:    0.1274    magn:   -0.0000    constr:    0.0000
     atom:   10    charge:    0.1275    magn:   -0.0000    constr:    0.0000
     atom:   11    charge:    0.1275    magn:   -0.0000    constr:    0.0000
     atom:   12    charge:    0.1274    magn:   -0.0000    constr:    0.0000

     total cpu time spent up to now is       21.0 secs

     total energy              =    -780.60694312 Ry
     Harris-Foulkes estimate   =    -780.60711038 Ry
     estimated scf accuracy    <       0.00081941 Ry

     total magnetization       =    -0.03 Bohr mag/cell
     absolute magnetization    =     0.03 Bohr mag/cell

     iteration #  3     ecut=    50.00 Ry     beta=0.45
     Davidson diagonalization with overlap
     ethr =  1.44E-07,  avg # of iterations =  2.0
 
     Magnetic moment per site:
     atom:    1    charge:    3.5937    magn:   -0.0002    constr:    0.0000
     atom:    2    charge:    3.5938    magn:   -0.0002    constr:    0.0000
     atom:    3    charge:    6.0705    magn:   -0.0001    constr:    0.0000
     atom:    4    charge:    6.0702    magn:   -0.0001    constr:    0.0000
     atom:    5    charge:    0.1275    magn:   -0.0000    constr:    0.0000
     atom:    6    charge:    0.1274    magn:   -0.0000    constr:    0.0000
     atom:    7    charge:    0.1274    magn:   -0.0000    constr:    0.0000
     atom:    8    charge:    0.1274    magn:   -0.0000    constr:    0.0000
     atom:    9    charge:    0.1274    magn:   -0.0000    constr:    0.0000
     atom:   10    charge:    0.1274    magn:   -0.0000    constr:    0.0000
     atom:   11    charge:    0.1275    magn:   -0.0000    constr:    0.0000
     atom:   12    charge:    0.1274    magn:   -0.0000    constr:    0.0000

     total cpu time spent up to now is       21.4 secs

     End of self-consistent calculation

 ------ SPIN UP ------------


          k = 0.0000 0.0000 0.0000 ( 11245 PWs)   bands (ev):

    -7.1936  -7.1163  -7.1162  -7.1016  -7.0758  -7.0758  -7.0565  -7.0465
    -7.0372  -7.0161  -6.2178  -6.2063  -6.1905  -6.1904  -6.1114  -6.1114
    -6.0983  -6.0899  -6.0706  -6.0335  -6.0026  -4.5005  -4.4995  -4.1489
    -2.7962  -2.4083  -2.4079  -1.4187  -0.6693   0.2237   0.8342   2.6497
     2.6502   2.6768   2.8532   2.8533   3.1840   4.9070   5.0584   5.0584
     5.8782   6.3607   7.0269   7.0286   7.1999   7.4418   7.5463   8.7616
     9.2002   9.2490   9.2493   9.4405   9.4420   9.9470  10.0484  10.0510
    10.1141  10.1348  10.2556  12.1220

 ------ SPIN DOWN ----------


          k = 0.0000 0.0000 0.0000 ( 11245 PWs)   bands (ev):

    -7.1941  -7.1168  -7.1167  -7.1021  -7.0763  -7.0762  -7.0571  -7.0470
    -7.0378  -7.0166  -6.2186  -6.2067  -6.1910  -6.1909  -6.1119  -6.1118
    -6.0987  -6.0905  -6.0712  -6.0340  -6.0031  -4.5012  -4.5001  -4.1497
    -2.7967  -2.4090  -2.4086  -1.4194  -0.6708   0.2222   0.8333   2.6485
     2.6491   2.6753   2.8520   2.8521   3.1834   4.9062   5.0574   5.0574
     5.8767   6.3599   7.0261   7.0278   7.1992   7.4399   7.5419   8.7604
     9.2001   9.2483   9.2486   9.4398   9.4413   9.9456  10.0462  10.0488
    10.1126  10.1344  10.2550  12.1203

     the Fermi energy is     7.4924 ev

!    total energy              =    -780.60702036 Ry
     Harris-Foulkes estimate   =    -780.60702371 Ry
     estimated scf accuracy    <       0.00000559 Ry

     total magnetization       =    -0.03 Bohr mag/cell
     absolute magnetization    =     0.03 Bohr mag/cell

     convergence has been achieved in   3 iterations

     Forces acting on atoms (Ry/au):

     atom    1 type  1   force =    -0.00004228   -0.00148118   -0.00061775
     atom    2 type  1   force =     0.00048559    0.00035029   -0.00147835
     atom    3 type  2   force =    -0.00038760    0.00053208    0.00085580
     atom    4 type  2   force =     0.00038449    0.00007074    0.00042942
     atom    5 type  3   force =     0.00005564   -0.00028126    0.02254997
     atom    6 type  3   force =     0.00172077   -0.00146138   -0.02249039
     atom    7 type  3   force =     0.00063419    0.00090859    0.02200931
     atom    8 type  3   force =    -0.00079533   -0.00080698    0.02243745
     atom    9 type  3   force =    -0.00062334    0.00076360    0.02178498
     atom   10 type  3   force =     0.00135972    0.00112928   -0.02192391
     atom   11 type  3   force =    -0.00150022   -0.00113076   -0.02205967
     atom   12 type  3   force =    -0.00129163    0.00140698   -0.02149687

     Total force =     0.062704     Total SCF correction =     0.006239

     Entering Dynamics:    iteration =     5
                           time      =   0.0050 pico-seconds


     Andersen thermostat:   12 collisions

ATOMIC_POSITIONS (alat)
In       0.002255540   0.004532570  -0.002385789
In       3.262518295   3.261777682  -0.000083472
Ga       3.261086663  -0.000943198   3.293899203
Ga       0.001257295   3.263916394   3.297156803
As       1.634969534   1.634015903   1.866866483
As       1.633757975   1.630372910   4.721009480
As       1.635456378   4.898241156   1.868391908
As       4.897522848   1.630694143   1.862511064
As       4.900167348   4.891178768   1.868324788
As       1.633170658   4.900088521   4.719023899
As       4.894223196   1.632559151   4.714458568
As       4.896392561   4.905576617   4.721228789


     kinetic energy (Ekin) =     0.03041598 Ry
     temperature           =   291.04831696 K 
     Ekin + Etot (const)   =  -780.57660438 Ry
     Message from routine dynamics:
     Total linear momentum <> 0

     Linear momentum :   -0.2118529083   14.8744784987    7.5061447930

     Writing output data file x.save
     NEW-OLD atomic charge density approx. for the potential

     Check: negative/imaginary core charge=   -0.000002    0.000000

     total cpu time spent up to now is       23.0 secs

     per-process dynamical memory:    80.0 Mb

     Self-consistent Calculation

     iteration #  1     ecut=    50.00 Ry     beta=0.45
     Davidson diagonalization with overlap
     ethr =  1.00E-06,  avg # of iterations =  4.0

     Threshold (ethr) on eigenvalues was too large:
     Diagonalizing with lowered threshold

     Davidson diagonalization with overlap
     ethr =  7.11E-08,  avg # of iterations =  1.0
 
     Magnetic moment per site:
     atom:    1    charge:    3.5933    magn:   -0.0002    constr:    0.0000
     atom:    2    charge:    3.5934    magn:   -0.0002    constr:    0.0000
     atom:    3    charge:    6.0703    magn:   -0.0001    constr:    0.0000
     atom:    4    charge:    6.0703    magn:   -0.0001    constr:    0.0000
     atom:    5    charge:    0.1274    magn:   -0.0000    constr:    0.0000
     atom:    6    charge:    0.1275    magn:   -0.0000    constr:    0.0000
     atom:    7    charge:    0.1274    magn:   -0.0000    constr:    0.0000
     atom:    8    charge:    0.1274    magn:   -0.0000    constr:    0.0000
     atom:    9    charge:    0.1274    magn:   -0.0000    constr:    0.0000
     atom:   10    charge:    0.1275    magn:   -0.0000    constr:    0.0000
     atom:   11    charge:    0.1275    magn:   -0.0000    constr:    0.0000
     atom:   12    charge:    0.1275    magn:   -0.0000    constr:    0.0000

     total cpu time spent up to now is       24.2 secs

     total energy              =    -780.60719292 Ry
     Harris-Foulkes estimate   =    -780.60723161 Ry
     estimated scf accuracy    <       0.00006665 Ry

     total magnetization       =    -0.05 Bohr mag/cell
     absolute magnetization    =     0.05 Bohr mag/cell

     iteration #  2     ecut=    50.00 Ry     beta=0.45
     Davidson diagonalization with overlap
     ethr =  7.24E-08,  avg # of iterations =  3.0
 
     Magnetic moment per site:
     atom:    1    charge:    3.5934    magn:   -0.0002    constr:    0.0000
     atom:    2    charge:    3.5935    magn:   -0.0002    constr:    0.0000
     atom:    3    charge:    6.0703    magn:   -0.0002    constr:    0.0000
     atom:    4    charge:    6.0701    magn:   -0.0002    constr:    0.0000
     atom:    5    charge:    0.1275    magn:   -0.0000    constr:    0.0000
     atom:    6    charge:    0.1275    magn:   -0.0000    constr:    0.0000
     atom:    7    charge:    0.1274    magn:   -0.0000    constr:    0.0000
     atom:    8    charge:    0.1274    magn:   -0.0000    constr:    0.0000
     atom:    9    charge:    0.1274    magn:   -0.0000    constr:    0.0000
     atom:   10    charge:    0.1275    magn:   -0.0000    constr:    0.0000
     atom:   11    charge:    0.1275    magn:   -0.0000    constr:    0.0000
     atom:   12    charge:    0.1274    magn:   -0.0000    constr:    0.0000

     total cpu time spent up to now is       24.8 secs

     total energy              =    -780.60719892 Ry
     Harris-Foulkes estimate   =    -780.60725312 Ry
     estimated scf accuracy    <       0.00021525 Ry

     total magnetization       =    -0.06 Bohr mag/cell
     absolute magnetization    =     0.07 Bohr mag/cell

     iteration #  3     ecut=    50.00 Ry     beta=0.45
     Davidson diagonalization with overlap
     ethr =  7.24E-08,  avg # of iterations =  2.0
 
     Magnetic moment per site:
     atom:    1    charge:    3.5935    magn:   -0.0004    constr:    0.0000
     atom:    2    charge:    3.5936    magn:   -0.0004    constr:    0.0000
     atom:    3    charge:    6.0702    magn:   -0.0003    constr:    0.0000
     atom:    4    charge:    6.0701    magn:   -0.0003    constr:    0.0000
     atom:    5    charge:    0.1274    magn:   -0.0001    constr:    0.0000
     atom:    6    charge:    0.1275    magn:   -0.0001    constr:    0.0000
     atom:    7    charge:    0.1274    magn:   -0.0001    constr:    0.0000
     atom:    8    charge:    0.1274    magn:   -0.0001    constr:    0.0000
     atom:    9    charge:    0.1274    magn:   -0.0001    constr:    0.0000
     atom:   10    charge:    0.1275    magn:   -0.0001    constr:    0.0000
     atom:   11    charge:    0.1275    magn:   -0.0001    constr:    0.0000
     atom:   12    charge:    0.1274    magn:   -0.0001    constr:    0.0000

     total cpu time spent up to now is       25.3 secs

     End of self-consistent calculation

 ------ SPIN UP ------------


          k = 0.0000 0.0000 0.0000 ( 11245 PWs)   bands (ev):

    -7.1972  -7.1202  -7.1201  -7.1043  -7.0781  -7.0778  -7.0628  -7.0463
    -7.0421  -7.0173  -6.2177  -6.2017  -6.1860  -6.1856  -6.1067  -6.1066
    -6.0937  -6.0854  -6.0660  -6.0288  -5.9987  -4.5025  -4.4995  -4.1474
    -2.7973  -2.4073  -2.4061  -1.4173  -0.6713   0.2256   0.8372   2.6486
     2.6502   2.6772   2.8542   2.8545   3.1864   4.9073   5.0597   5.0598
     5.8770   6.3600   7.0256   7.0307   7.2020   7.4444   7.5520   8.7608
     9.2001   9.2501   9.2509   9.4416   9.4463   9.9479  10.0472  10.0554
    10.1201  10.1330  10.2591  12.1229

 ------ SPIN DOWN ----------


          k = 0.0000 0.0000 0.0000 ( 11245 PWs)   bands (ev):

    -7.1985  -7.1214  -7.1213  -7.1056  -7.0793  -7.0790  -7.0642  -7.0476
    -7.0434  -7.0185  -6.2196  -6.2028  -6.1871  -6.1868  -6.1078  -6.1077
    -6.0948  -6.0868  -6.0674  -6.0300  -6.0001  -4.5042  -4.5011  -4.1496
    -2.7986  -2.4091  -2.4079  -1.4190  -0.6751   0.2219   0.8349   2.6458
     2.6473   2.6733   2.8512   2.8514   3.1848   4.9051   5.0571   5.0572
     5.8732   6.3580   7.0236   7.0287   7.2002   7.4396   7.5408   8.7577
     9.1998   9.2482   9.2490   9.4398   9.4444   9.9444  10.0416  10.0499
    10.1154  10.1326  10.2576  12.1185

     the Fermi energy is     7.4941 ev

!    total energy              =    -780.60722627 Ry
     Harris-Foulkes estimate   =    -780.60722531 Ry
     estimated scf accuracy    <       0.00000421 Ry

     total magnetization       =    -0.07 Bohr mag/cell
     absolute magnetization    =     0.08 Bohr mag/cell

     convergence has been achieved in   3 iterations

     Forces acting on atoms (Ry/au):

     atom    1 type  1   force =    -0.00008989   -0.00067852    0.00146315
     atom    2 type  1   force =     0.00053952    0.00095707   -0.00041955
     atom    3 type  2   force =     0.00084000    0.00009484   -0.00153711
     atom    4 type  2   force =     0.00008426   -0.00023298   -0.00036181
     atom    5 type  3   force =    -0.00027931   -0.00029842    0.02268150
     atom    6 type  3   force =     0.00210559   -0.00175401   -0.02239351
     atom    7 type  3   force =     0.00043381    0.00128410    0.02192869
     atom    8 type  3   force =    -0.00106285   -0.00111891    0.02244427
     atom    9 type  3   force =    -0.00073580    0.00084939    0.02152916
     atom   10 type  3   force =     0.00126822    0.00084999   -0.02190585
     atom   11 type  3   force =    -0.00175416   -0.00140189   -0.02203323
     atom   12 type  3   force =    -0.00134939    0.00144935   -0.02139571

     Total force =     0.062601     Total SCF correction =     0.004187

     Entering Dynamics:    iteration =     6
                           time      =   0.0060 pico-seconds


     Andersen thermostat:   12 collisions

ATOMIC_POSITIONS (alat)
In       0.001602890   0.004243318  -0.003374719
In       3.262741573   3.262808800  -0.000871699
Ga       3.260194044  -0.001580330   3.295171722
Ga       0.002231718   3.264210557   3.301279434
As       1.638550656   1.631054717   1.870017786
As       1.635204909   1.629128135   4.719051070
As       1.633142079   4.901007368   1.866148939
As       4.898142836   1.631579173   1.863677892
As       4.900034973   4.893040888   1.869591657
As       1.632606853   4.897251092   4.718056936
As       4.895203598   1.631609084   4.713162246
As       4.893356487   4.907238960   4.719811147


     kinetic energy (Ekin) =     0.03348958 Ry
     temperature           =   320.45937087 K 
     Ekin + Etot (const)   =  -780.57373669 Ry
     Message from routine dynamics:
     Total linear momentum <> 0

     Linear momentum :  -15.8988026636   -5.3796110028   -4.6797954327

     Writing output data file x.save
     NEW-OLD atomic charge density approx. for the potential

     Check: negative/imaginary core charge=   -0.000002    0.000000

     total cpu time spent up to now is       27.0 secs

     per-process dynamical memory:    80.0 Mb

     Self-consistent Calculation

     iteration #  1     ecut=    50.00 Ry     beta=0.45
     Davidson diagonalization with overlap
     ethr =  1.00E-06,  avg # of iterations =  3.0
 
     Magnetic moment per site:
     atom:    1    charge:    3.5934    magn:   -0.0005    constr:    0.0000
     atom:    2    charge:    3.5936    magn:   -0.0005    constr:    0.0000
     atom:    3    charge:    6.0704    magn:   -0.0004    constr:    0.0000
     atom:    4    charge:    6.0687    magn:   -0.0003    constr:    0.0000
     atom:    5    charge:    0.1275    magn:   -0.0001    constr:    0.0000
     atom:    6    charge:    0.1275    magn:   -0.0001    constr:    0.0000
     atom:    7    charge:    0.1274    magn:   -0.0001    constr:    0.0000
     atom:    8    charge:    0.1274    magn:   -0.0001    constr:    0.0000
     atom:    9    charge:    0.1274    magn:   -0.0001    constr:    0.0000
     atom:   10    charge:    0.1275    magn:   -0.0001    constr:    0.0000
     atom:   11    charge:    0.1275    magn:   -0.0001    constr:    0.0000
     atom:   12    charge:    0.1275    magn:   -0.0001    constr:    0.0000

     total cpu time spent up to now is       27.6 secs

     total energy              =    -780.60743441 Ry
     Harris-Foulkes estimate   =    -780.60769399 Ry
     estimated scf accuracy    <       0.00048596 Ry

     total magnetization       =    -0.12 Bohr mag/cell
     absolute magnetization    =     0.12 Bohr mag/cell

     iteration #  2     ecut=    50.00 Ry     beta=0.45
     Davidson diagonalization with overlap
     ethr =  5.28E-07,  avg # of iterations =  3.0
 
     Magnetic moment per site:
     atom:    1    charge:    3.5934    magn:   -0.0005    constr:    0.0000
     atom:    2    charge:    3.5936    magn:   -0.0005    constr:    0.0000
     atom:    3    charge:    6.0700    magn:   -0.0004    constr:    0.0000
     atom:    4    charge:    6.0690    magn:   -0.0004    constr:    0.0000
     atom:    5    charge:    0.1275    magn:   -0.0001    constr:    0.0000
     atom:    6    charge:    0.1275    magn:   -0.0001    constr:    0.0000
     atom:    7    charge:    0.1274    magn:   -0.0001    constr:    0.0000
     atom:    8    charge:    0.1274    magn:   -0.0001    constr:    0.0000
     atom:    9    charge:    0.1274    magn:   -0.0001    constr:    0.0000
     atom:   10    charge:    0.1275    magn:   -0.0001    constr:    0.0000
     atom:   11    charge:    0.1275    magn:   -0.0001    constr:    0.0000
     atom:   12    charge:    0.1275    magn:   -0.0001    constr:    0.0000

     total cpu time spent up to now is       28.1 secs

     total energy              =    -780.60735447 Ry
     Harris-Foulkes estimate   =    -780.60798164 Ry
     estimated scf accuracy    <       0.00307263 Ry

     total magnetization       =    -0.15 Bohr mag/cell
     absolute magnetization    =     0.15 Bohr mag/cell

     iteration #  3     ecut=    50.00 Ry     beta=0.45
     Davidson diagonalization with overlap
     ethr =  5.28E-07,  avg # of iterations =  2.0
 
     Magnetic moment per site:
     atom:    1    charge:    3.5934    magn:   -0.0009    constr:    0.0000
     atom:    2    charge:    3.5936    magn:   -0.0009    constr:    0.0000
     atom:    3    charge:    6.0702    magn:   -0.0006    constr:    0.0000
     atom:    4    charge:    6.0688    magn:   -0.0006    constr:    0.0000
     atom:    5    charge:    0.1275    magn:   -0.0001    constr:    0.0000
     atom:    6    charge:    0.1275    magn:   -0.0001    constr:    0.0000
     atom:    7    charge:    0.1274    magn:   -0.0001    constr:    0.0000
     atom:    8    charge:    0.1274    magn:   -0.0001    constr:    0.0000
     atom:    9    charge:    0.1274    magn:   -0.0001    constr:    0.0000
     atom:   10    charge:    0.1275    magn:   -0.0001    constr:    0.0000
     atom:   11    charge:    0.1275    magn:   -0.0001    constr:    0.0000
     atom:   12    charge:    0.1275    magn:   -0.0001    constr:    0.0000

     total cpu time spent up to now is       28.6 secs

     End of self-consistent calculation

 ------ SPIN UP ------------


          k = 0.0000 0.0000 0.0000 ( 11245 PWs)   bands (ev):

    -7.2017  -7.1239  -7.1239  -7.1090  -7.0828  -7.0825  -7.0662  -7.0516
    -7.0456  -7.0221  -6.2177  -6.1945  -6.1785  -6.1783  -6.0993  -6.0991
    -6.0866  -6.0782  -6.0589  -6.0213  -5.9926  -4.5035  -4.5022  -4.1442
    -2.7994  -2.4039  -2.4033  -1.4140  -0.6743   0.2297   0.8428   2.6484
     2.6490   2.6789   2.8568   2.8569   3.1909   4.9079   5.0626   5.0627
     5.8753   6.3584   7.0273   7.0304   7.2068   7.4489   7.5648   8.7598
     9.1998   9.2532   9.2534   9.4490   9.4510   9.9507  10.0541  10.0552
    10.1266  10.1357  10.2650  12.1252

 ------ SPIN DOWN ----------


          k = 0.0000 0.0000 0.0000 ( 11245 PWs)   bands (ev):

    -7.2047  -7.1266  -7.1266  -7.1120  -7.0855  -7.0852  -7.0692  -7.0547
    -7.0485  -7.0250  -6.2220  -6.1970  -6.1811  -6.1809  -6.1018  -6.1016
    -6.0891  -6.0815  -6.0621  -6.0240  -5.9958  -4.5073  -4.5060  -4.1492
    -2.8023  -2.4081  -2.4075  -1.4180  -0.6832   0.2211   0.8374   2.6418
     2.6423   2.6698   2.8497   2.8498   3.1873   4.9029   5.0566   5.0568
     5.8665   6.3536   7.0227   7.0258   7.2027   7.4378   7.5389   8.7526
     9.1991   9.2488   9.2490   9.4448   9.4468   9.9426  10.0412  10.0422
    10.1156  10.1348  10.2616  12.1141

     the Fermi energy is     7.4968 ev

!    total energy              =    -780.60767303 Ry
     Harris-Foulkes estimate   =    -780.60765968 Ry
     estimated scf accuracy    <       0.00000702 Ry

     total magnetization       =    -0.16 Bohr mag/cell
     absolute magnetization    =     0.17 Bohr mag/cell

     convergence has been achieved in   3 iterations

     Forces acting on atoms (Ry/au):

     atom    1 type  1   force =     0.00009196   -0.00048579    0.00056145
     atom    2 type  1   force =     0.00046406    0.00037260   -0.00040224
     atom    3 type  2   force =     0.00061363    0.00002640   -0.00097671
     atom    4 type  2   force =     0.00045215    0.00019101   -0.00113261
     atom    5 type  3   force =     0.00150884   -0.00190310    0.02256898
     atom    6 type  3   force =     0.00389580   -0.00347411   -0.02210951
     atom    7 type  3   force =     0.00140720    0.00270204    0.02193003
     atom    8 type  3   force =    -0.00289840   -0.00227121    0.02235445
     atom    9 type  3   force =    -0.00243613    0.00222618    0.02167887
     atom   10 type  3   force =     0.00303215    0.00225907   -0.02151933
     atom   11 type  3   force =    -0.00293082   -0.00297772   -0.02173742
     atom   12 type  3   force =    -0.00320043    0.00333463   -0.02121598

     Total force =     0.062916     Total SCF correction =     0.004396

     Entering Dynamics:    iteration =     7
                           time      =   0.0070 pico-seconds


     Andersen thermostat:   12 collisions

ATOMIC_POSITIONS (alat)
In       0.001017616   0.006735924  -0.002524909
In       3.262668282   3.263472761  -0.000078636
Ga       3.257977327  -0.000285557   3.295178308
Ga       0.007619631   3.263268847   3.300775409
As       1.638127215   1.629167235   1.869781486
As       1.633089946   1.627571764   4.720943867
As       1.635837833   4.901683852   1.866204254
As       4.898371832   1.631324064   1.863560866
As       4.898383730   4.892833222   1.870384036
As       1.631944763   4.894854084   4.719820576
As       4.894096004   1.631340722   4.709855218
As       4.894449154   4.907968401   4.716912560


     kinetic energy (Ekin) =     0.03040073 Ry
     temperature           =   290.90244966 K 
     Ekin + Etot (const)   =  -780.57727230 Ry
     Message from routine dynamics:
     Total linear momentum <> 0

     Linear momentum :    9.9425620630   15.3719665256   -4.5170839172

     Writing output data file x.save
     NEW-OLD atomic charge density approx. for the potential

     Check: negative/imaginary core charge=   -0.000002    0.000000

     total cpu time spent up to now is       30.1 secs

     per-process dynamical memory:    80.0 Mb

     Self-consistent Calculation

     iteration #  1     ecut=    50.00 Ry     beta=0.45
     Davidson diagonalization with overlap
     ethr =  1.00E-06,  avg # of iterations =  3.0
 
     Magnetic moment per site:
     atom:    1    charge:    3.5931    magn:   -0.0011    constr:    0.0000
     atom:    2    charge:    3.5936    magn:   -0.0011    constr:    0.0000
     atom:    3    charge:    6.0693    magn:   -0.0008    constr:    0.0000
     atom:    4    charge:    6.0681    magn:   -0.0007    constr:    0.0000
     atom:    5    charge:    0.1275    magn:   -0.0002    constr:    0.0000
     atom:    6    charge:    0.1275    magn:   -0.0002    constr:    0.0000
     atom:    7    charge:    0.1275    magn:   -0.0002    constr:    0.0000
     atom:    8    charge:    0.1274    magn:   -0.0002    constr:    0.0000
     atom:    9    charge:    0.1274    magn:   -0.0002    constr:    0.0000
     atom:   10    charge:    0.1275    magn:   -0.0002    constr:    0.0000
     atom:   11    charge:    0.1275    magn:   -0.0002    constr:    0.0000
     atom:   12    charge:    0.1275    magn:   -0.0002    constr:    0.0000

     total cpu time spent up to now is       30.8 secs

     total energy              =    -780.60779062 Ry
     Harris-Foulkes estimate   =    -780.60783194 Ry
     estimated scf accuracy    <       0.00011582 Ry

     total magnetization       =    -0.26 Bohr mag/cell
     absolute magnetization    =     0.27 Bohr mag/cell

     iteration #  2     ecut=    50.00 Ry     beta=0.45
     Davidson diagonalization with overlap
     ethr =  1.26E-07,  avg # of iterations =  3.0
 
     Magnetic moment per site:
     atom:    1    charge:    3.5931    magn:   -0.0012    constr:    0.0000
     atom:    2    charge:    3.5936    magn:   -0.0012    constr:    0.0000
     atom:    3    charge:    6.0695    magn:   -0.0008    constr:    0.0000
     atom:    4    charge:    6.0679    magn:   -0.0007    constr:    0.0000
     atom:    5    charge:    0.1275    magn:   -0.0002    constr:    0.0000
     atom:    6    charge:    0.1275    magn:   -0.0002    constr:    0.0000
     atom:    7    charge:    0.1275    magn:   -0.0002    constr:    0.0000
     atom:    8    charge:    0.1274    magn:   -0.0002    constr:    0.0000
     atom:    9    charge:    0.1274    magn:   -0.0002    constr:    0.0000
     atom:   10    charge:    0.1275    magn:   -0.0002    constr:    0.0000
     atom:   11    charge:    0.1275    magn:   -0.0002    constr:    0.0000
     atom:   12    charge:    0.1275    magn:   -0.0002    constr:    0.0000

     total cpu time spent up to now is       31.3 secs

     total energy              =    -780.60780168 Ry
     Harris-Foulkes estimate   =    -780.60792500 Ry
     estimated scf accuracy    <       0.00064123 Ry

     total magnetization       =    -0.30 Bohr mag/cell
     absolute magnetization    =     0.31 Bohr mag/cell

     iteration #  3     ecut=    50.00 Ry     beta=0.45
     Davidson diagonalization with overlap
     ethr =  1.26E-07,  avg # of iterations =  2.0
 
     Magnetic moment per site:
     atom:    1    charge:    3.5932    magn:   -0.0018    constr:    0.0000
     atom:    2    charge:    3.5936    magn:   -0.0018    constr:    0.0000
     atom:    3    charge:    6.0694    magn:   -0.0012    constr:    0.0000
     atom:    4    charge:    6.0677    magn:   -0.0010    constr:    0.0000
     atom:    5    charge:    0.1275    magn:   -0.0003    constr:    0.0000
     atom:    6    charge:    0.1275    magn:   -0.0003    constr:    0.0000
     atom:    7    charge:    0.1274    magn:   -0.0003    constr:    0.0000
     atom:    8    charge:    0.1274    magn:   -0.0003    constr:    0.0000
     atom:    9    charge:    0.1274    magn:   -0.0002    constr:    0.0000
     atom:   10    charge:    0.1275    magn:   -0.0003    constr:    0.0000
     atom:   11    charge:    0.1275    magn:   -0.0003    constr:    0.0000
     atom:   12    charge:    0.1275    magn:   -0.0003    constr:    0.0000

     total cpu time spent up to now is       31.8 secs

     End of self-consistent calculation

 ------ SPIN UP ------------


          k = 0.0000 0.0000 0.0000 ( 11245 PWs)   bands (ev):

    -7.1956  -7.1186  -7.1185  -7.1010  -7.0741  -7.0737  -7.0635  -7.0413
    -7.0399  -7.0118  -6.2169  -6.2000  -6.1839  -6.1839  -6.1052  -6.1052
    -6.0926  -6.0837  -6.0645  -6.0273  -5.9969  -4.5020  -4.5007  -4.1404
    -2.7986  -2.4010  -2.4003  -1.4108  -0.6682   0.2346   0.8448   2.6519
     2.6527   2.6858   2.8609   2.8610   3.1927   4.9104   5.0666   5.0669
     5.8813   6.3577   7.0297   7.0327   7.2107   7.4534   7.5820   8.7642
     9.1992   9.2563   9.2567   9.4531   9.4551   9.9561  10.0602  10.0622
    10.1321  10.1400  10.2692  12.1312

 ------ SPIN DOWN ----------


          k = 0.0000 0.0000 0.0000 ( 11245 PWs)   bands (ev):

    -7.2021  -7.1242  -7.1241  -7.1074  -7.0798  -7.0795  -7.0697  -7.0474
    -7.0466  -7.0180  -6.2262  -6.2058  -6.1898  -6.1897  -6.1109  -6.1108
    -6.0981  -6.0911  -6.0717  -6.0334  -6.0041  -4.5102  -4.5089  -4.1513
    -2.8047  -2.4101  -2.4093  -1.4194  -0.6871   0.2160   0.8329   2.6377
     2.6385   2.6664   2.8456   2.8457   3.1846   4.8997   5.0538   5.0541
     5.8625   6.3469   7.0198   7.0228   7.2017   7.4287   7.5268   8.7486
     9.1976   9.2469   9.2473   9.4439   9.4460   9.9386  10.0323  10.0345
    10.1107  10.1357  10.2618  12.1076

     the Fermi energy is     7.4943 ev

!    total energy              =    -780.60791427 Ry
     Harris-Foulkes estimate   =    -780.60786641 Ry
     estimated scf accuracy    <       0.00000705 Ry

     total magnetization       =    -0.33 Bohr mag/cell
     absolute magnetization    =     0.34 Bohr mag/cell

     convergence has been achieved in   3 iterations

     Forces acting on atoms (Ry/au):

[...]
     atom:    6    charge:    0.1275    magn:    0.0001    constr:    0.0000
     atom:    7    charge:    0.1275    magn:    0.0001    constr:    0.0000
     atom:    8    charge:    0.1276    magn:    0.0001    constr:    0.0000
     atom:    9    charge:    0.1273    magn:    0.0002    constr:    0.0000
     atom:   10    charge:    0.1274    magn:   -0.0001    constr:    0.0000
     atom:   11    charge:    0.1279    magn:   -0.0001    constr:    0.0000
     atom:   12    charge:    0.1274    magn:   -0.0001    constr:    0.0000

     total cpu time spent up to now is      220.9 secs

     End of self-consistent calculation

 ------ SPIN UP ------------


          k = 0.0000 0.0000 0.0000 ( 11245 PWs)   bands (ev):

    -7.1648  -7.0877  -7.0869  -7.0673  -7.0423  -7.0408  -7.0315  -7.0108
    -7.0050  -6.9788  -6.2658  -6.2523  -6.2510  -6.2422  -6.1743  -6.1737
    -6.1596  -6.1512  -6.1309  -6.0992  -6.0529  -4.5156  -4.5112  -4.1509
    -2.8108  -2.4142  -2.4117  -1.4205  -0.6641   0.2169   0.8163   2.6424
     2.6439   2.6877   2.8472   2.8482   3.1722   4.8984   5.0570   5.0589
     5.8794   6.3228   7.0004   7.0232   7.2139   7.3759   7.5970   8.7597
     9.1841   9.2436   9.2444   9.4478   9.4534   9.9345   9.9988  10.0444
    10.1324  10.1633  10.2739  12.1173

 ------ SPIN DOWN ----------


          k = 0.0000 0.0000 0.0000 ( 11245 PWs)   bands (ev):

    -7.1651  -7.0870  -7.0866  -7.0704  -7.0451  -7.0450  -7.0262  -7.0137
    -7.0080  -6.9846  -6.2630  -6.2498  -6.2482  -6.2407  -6.1715  -6.1709
    -6.1567  -6.1487  -6.1283  -6.0959  -6.0511  -4.5156  -4.5111  -4.1511
    -2.8102  -2.4139  -2.4122  -1.4202  -0.6679   0.2166   0.8202   2.6413
     2.6417   2.6858   2.8464   2.8472   3.1743   4.8988   5.0558   5.0569
     5.8759   6.3284   7.0006   7.0225   7.2154   7.3747   7.5917   8.7585
     9.1843   9.2433   9.2446   9.4483   9.4519   9.9339   9.9945  10.0431
    10.1317  10.1653  10.2717  12.1136

     the Fermi energy is     7.4847 ev

!    total energy              =    -780.60900035 Ry
     Harris-Foulkes estimate   =    -780.60900312 Ry
     estimated scf accuracy    <       0.00000417 Ry

     total magnetization       =    -0.00 Bohr mag/cell
     absolute magnetization    =     1.12 Bohr mag/cell

     convergence has been achieved in   3 iterations

     Forces acting on atoms (Ry/au):

     atom    1 type  1   force =    -0.00150690    0.00064947    0.00077271
     atom    2 type  1   force =     0.00254401   -0.00077729   -0.00061377
     atom    3 type  2   force =    -0.00379791   -0.00669291    0.00005257
     atom    4 type  2   force =    -0.00387596    0.00449808   -0.00310507
     atom    5 type  3   force =    -0.00386903    0.00370529    0.01796432
     atom    6 type  3   force =     0.00298615   -0.00170037   -0.01718705
     atom    7 type  3   force =     0.00043111   -0.00324639    0.01948798
     atom    8 type  3   force =     0.00490142    0.00067150    0.01757589
     atom    9 type  3   force =     0.00237628   -0.00274802    0.01942067
     atom   10 type  3   force =     0.00115592    0.00386527   -0.01950711
     atom   11 type  3   force =    -0.00241305    0.00254047   -0.01622233
     atom   12 type  3   force =     0.00106795   -0.00076510   -0.01863881

     Total force =     0.053936     Total SCF correction =     0.008404
     SCF correction compared to forces is large: reduce conv_thr to get better values

     Entering Dynamics:    iteration =    49
                           time      =   0.0490 pico-seconds


     Andersen thermostat:   12 collisions

ATOMIC_POSITIONS (alat)
In       0.002109100  -0.006019696  -0.007872406
In       3.259459850   3.271614697   0.003931846
Ga       3.275210319   0.016151682   3.282112158
Ga       0.011207160   3.257292137   3.311452301
As       1.617210857   1.647267761   1.864380532
As       1.627650090   1.624605386   4.723357923
As       1.644343533   4.888213115   1.874967013
As       4.913428622   1.616882843   1.857553728
As       4.903441417   4.897534233   1.875922060
As       1.627310637   4.904734034   4.729780255
As       4.870883230   1.636909174   4.704326813
As       4.903900359   4.897932586   4.711447034


     kinetic energy (Ekin) =     0.02659577 Ry
     temperature           =   254.49306531 K 
     Ekin + Etot (const)   =  -780.58240458 Ry
     Message from routine dynamics:
     Total linear momentum <> 0

     Linear momentum :    5.5615463325   12.1298222246    0.3619684739

     Writing output data file x.save
     NEW-OLD atomic charge density approx. for the potential

     Check: negative/imaginary core charge=   -0.000002    0.000000

     total cpu time spent up to now is      222.4 secs

     per-process dynamical memory:    80.0 Mb

     Self-consistent Calculation

     iteration #  1     ecut=    50.00 Ry     beta=0.45
     Davidson diagonalization with overlap
     ethr =  1.00E-06,  avg # of iterations =  3.0
 
     Magnetic moment per site:
     atom:    1    charge:    3.5929    magn:    0.0003    constr:    0.0000
     atom:    2    charge:    3.5930    magn:    0.0003    constr:    0.0000
     atom:    3    charge:    6.0585    magn:    0.0023    constr:    0.0000
     atom:    4    charge:    6.0581    magn:   -0.0025    constr:    0.0000
     atom:    5    charge:    0.1275    magn:    0.0001    constr:    0.0000
     atom:    6    charge:    0.1274    magn:    0.0001    constr:    0.0000
     atom:    7    charge:    0.1276    magn:    0.0001    constr:    0.0000
     atom:    8    charge:    0.1275    magn:    0.0001    constr:    0.0000
     atom:    9    charge:    0.1274    magn:    0.0002    constr:    0.0000
     atom:   10    charge:    0.1274    magn:   -0.0001    constr:    0.0000
     atom:   11    charge:    0.1278    magn:   -0.0001    constr:    0.0000
     atom:   12    charge:    0.1274    magn:   -0.0001    constr:    0.0000

     total cpu time spent up to now is      223.0 secs

     total energy              =    -780.60886604 Ry
     Harris-Foulkes estimate   =    -780.60893694 Ry
     estimated scf accuracy    <       0.00011192 Ry

     total magnetization       =    -0.00 Bohr mag/cell
     absolute magnetization    =     1.11 Bohr mag/cell

     iteration #  2     ecut=    50.00 Ry     beta=0.45
     Davidson diagonalization with overlap
     ethr =  1.22E-07,  avg # of iterations =  3.0
 
     Magnetic moment per site:
     atom:    1    charge:    3.5929    magn:    0.0003    constr:    0.0000
     atom:    2    charge:    3.5929    magn:    0.0003    constr:    0.0000
     atom:    3    charge:    6.0585    magn:    0.0023    constr:    0.0000
     atom:    4    charge:    6.0582    magn:   -0.0025    constr:    0.0000
     atom:    5    charge:    0.1276    magn:    0.0001    constr:    0.0000
     atom:    6    charge:    0.1275    magn:    0.0001    constr:    0.0000
     atom:    7    charge:    0.1275    magn:    0.0001    constr:    0.0000
     atom:    8    charge:    0.1275    magn:    0.0001    constr:    0.0000
     atom:    9    charge:    0.1274    magn:    0.0002    constr:    0.0000
     atom:   10    charge:    0.1274    magn:   -0.0001    constr:    0.0000
     atom:   11    charge:    0.1278    magn:   -0.0001    constr:    0.0000
     atom:   12    charge:    0.1274    magn:   -0.0001    constr:    0.0000

     total cpu time spent up to now is      223.5 secs

     total energy              =    -780.60887178 Ry
     Harris-Foulkes estimate   =    -780.60897955 Ry
     estimated scf accuracy    <       0.00040766 Ry

     total magnetization       =    -0.00 Bohr mag/cell
     absolute magnetization    =     1.12 Bohr mag/cell

     iteration #  3     ecut=    50.00 Ry     beta=0.45
     Davidson diagonalization with overlap
     ethr =  1.22E-07,  avg # of iterations =  2.0
 
     Magnetic moment per site:
     atom:    1    charge:    3.5928    magn:    0.0003    constr:    0.0000
     atom:    2    charge:    3.5929    magn:    0.0003    constr:    0.0000
     atom:    3    charge:    6.0585    magn:    0.0023    constr:    0.0000
     atom:    4    charge:    6.0582    magn:   -0.0025    constr:    0.0000
     atom:    5    charge:    0.1276    magn:    0.0001    constr:    0.0000
     atom:    6    charge:    0.1275    magn:    0.0001    constr:    0.0000
     atom:    7    charge:    0.1275    magn:    0.0001    constr:    0.0000
     atom:    8    charge:    0.1275    magn:    0.0001    constr:    0.0000
     atom:    9    charge:    0.1274    magn:    0.0002    constr:    0.0000
     atom:   10    charge:    0.1274    magn:   -0.0001    constr:    0.0000
     atom:   11    charge:    0.1278    magn:   -0.0001    constr:    0.0000
     atom:   12    charge:    0.1274    magn:   -0.0001    constr:    0.0000

     total cpu time spent up to now is      224.3 secs

     End of self-consistent calculation

 ------ SPIN UP ------------


          k = 0.0000 0.0000 0.0000 ( 11245 PWs)   bands (ev):

    -7.1621  -7.0850  -7.0842  -7.0650  -7.0400  -7.0385  -7.0286  -7.0079
    -7.0031  -6.9766  -6.2675  -6.2536  -6.2525  -6.2417  -6.1758  -6.1752
    -6.1612  -6.1529  -6.1324  -6.1007  -6.0536  -4.5144  -4.5092  -4.1509
    -2.8092  -2.4144  -2.4115  -1.4206  -0.6617   0.2168   0.8155   2.6435
     2.6454   2.6885   2.8475   2.8485   3.1717   4.8990   5.0570   5.0589
     5.8812   6.3242   7.0008   7.0248   7.2128   7.3768   7.5948   8.7611
     9.1846   9.2434   9.2445   9.4463   9.4527   9.9337   9.9999  10.0439
    10.1323  10.1624  10.2742  12.1180

 ------ SPIN DOWN ----------


          k = 0.0000 0.0000 0.0000 ( 11245 PWs)   bands (ev):

    -7.1625  -7.0845  -7.0840  -7.0677  -7.0424  -7.0423  -7.0240  -7.0109
    -7.0054  -6.9819  -6.2649  -6.2513  -6.2500  -6.2405  -6.1733  -6.1726
    -6.1586  -6.1506  -6.1300  -6.0977  -6.0520  -4.5146  -4.5092  -4.1512
    -2.8087  -2.4140  -2.4122  -1.4204  -0.6652   0.2164   0.8190   2.6428
     2.6431   2.6866   2.8466   2.8474   3.1736   4.8993   5.0559   5.0571
     5.8781   6.3292   7.0010   7.0242   7.2141   7.3742   7.5911   8.7600
     9.1847   9.2434   9.2445   9.4468   9.4510   9.9329   9.9953  10.0436
    10.1315  10.1643  10.2716  12.1145

     the Fermi energy is     7.4842 ev

!    total energy              =    -780.60892183 Ry
     Harris-Foulkes estimate   =    -780.60892226 Ry
     estimated scf accuracy    <       0.00000100 Ry

     total magnetization       =    -0.00 Bohr mag/cell
     absolute magnetization    =     1.11 Bohr mag/cell

     convergence has been achieved in   3 iterations

     Forces acting on atoms (Ry/au):

     atom    1 type  1   force =    -0.00218358    0.00098652    0.00114886
     atom    2 type  1   force =     0.00216545   -0.00216104   -0.00115758
     atom    3 type  2   force =    -0.00522724   -0.00278320    0.00072140
     atom    4 type  2   force =    -0.00290235    0.00084324   -0.00247945
     atom    5 type  3   force =    -0.00382629    0.00381831    0.01806585
     atom    6 type  3   force =     0.00302689   -0.00157139   -0.01759247
     atom    7 type  3   force =     0.00059640   -0.00309171    0.01924456
     atom    8 type  3   force =     0.00501405    0.00052860    0.01770544
     atom    9 type  3   force =     0.00256042   -0.00236422    0.01931055
     atom   10 type  3   force =     0.00160818    0.00393160   -0.01955283
     atom   11 type  3   force =    -0.00197769    0.00286555   -0.01663060
     atom   12 type  3   force =     0.00114575   -0.00100226   -0.01878375

     Total force =     0.053794     Total SCF correction =     0.002504

     Entering Dynamics:    iteration =    50
                           time      =   0.0500 pico-seconds


     Andersen thermostat:   12 collisions

ATOMIC_POSITIONS (alat)
In       0.004962743  -0.005486088  -0.007038051
In       3.261066782   3.273190062   0.004012605
Ga       3.274837163   0.014421869   3.279075587
Ga       0.009533615   3.255977452   3.311083733
As       1.619218540   1.647090393   1.866916512
As       1.627727906   1.624380502   4.725127948
As       1.642163118   4.884948669   1.876297925
As       4.914739984   1.617301414   1.857445372
As       4.901196694   4.898389100   1.876401622
As       1.627109299   4.904612139   4.728044088
As       4.867667852   1.638864714   4.705272185
As       4.903414130   4.898093425   4.707996168


     kinetic energy (Ekin) =     0.03073260 Ry
     temperature           =   294.07806371 K 
     Ekin + Etot (const)   =  -780.57818923 Ry
     Message from routine dynamics:
     Total linear momentum <> 0

     Linear momentum :  -14.0669395091   -0.8190974746    3.2217058870

     Writing output data file x.save
     NEW-OLD atomic charge density approx. for the potential

     Check: negative/imaginary core charge=   -0.000002    0.000000

     total cpu time spent up to now is      225.8 secs

     per-process dynamical memory:    80.0 Mb

     Self-consistent Calculation

     iteration #  1     ecut=    50.00 Ry     beta=0.45
     Davidson diagonalization with overlap
     ethr =  1.00E-06,  avg # of iterations =  4.0

     Threshold (ethr) on eigenvalues was too large:
     Diagonalizing with lowered threshold

     Davidson diagonalization with overlap
     ethr =  3.08E-08,  avg # of iterations =  3.0
 
     Magnetic moment per site:
     atom:    1    charge:    3.5930    magn:    0.0003    constr:    0.0000
     atom:    2    charge:    3.5930    magn:    0.0003    constr:    0.0000
     atom:    3    charge:    6.0582    magn:    0.0023    constr:    0.0000
     atom:    4    charge:    6.0586    magn:   -0.0024    constr:    0.0000
     atom:    5    charge:    0.1276    magn:    0.0001    constr:    0.0000
     atom:    6    charge:    0.1275    magn:    0.0001    constr:    0.0000
     atom:    7    charge:    0.1275    magn:    0.0001    constr:    0.0000
     atom:    8    charge:    0.1276    magn:    0.0001    constr:    0.0000
     atom:    9    charge:    0.1274    magn:    0.0002    constr:    0.0000
     atom:   10    charge:    0.1274    magn:   -0.0001    constr:    0.0000
     atom:   11    charge:    0.1279    magn:   -0.0001    constr:    0.0000
     atom:   12    charge:    0.1274    magn:   -0.0002    constr:    0.0000

     total cpu time spent up to now is      226.9 secs

     total energy              =    -780.60919307 Ry
     Harris-Foulkes estimate   =    -780.60920672 Ry
     estimated scf accuracy    <       0.00002838 Ry

     total magnetization       =    -0.00 Bohr mag/cell
     absolute magnetization    =     1.10 Bohr mag/cell

     iteration #  2     ecut=    50.00 Ry     beta=0.45
     Davidson diagonalization with overlap
     ethr =  3.09E-08,  avg # of iterations =  3.0
 
     Magnetic moment per site:
     atom:    1    charge:    3.5928    magn:    0.0003    constr:    0.0000
     atom:    2    charge:    3.5929    magn:    0.0003    constr:    0.0000
     atom:    3    charge:    6.0583    magn:    0.0023    constr:    0.0000
     atom:    4    charge:    6.0587    magn:   -0.0025    constr:    0.0000
     atom:    5    charge:    0.1276    magn:    0.0001    constr:    0.0000
     atom:    6    charge:    0.1275    magn:    0.0001    constr:    0.0000
     atom:    7    charge:    0.1275    magn:    0.0001    constr:    0.0000
     atom:    8    charge:    0.1276    magn:    0.0001    constr:    0.0000
     atom:    9    charge:    0.1274    magn:    0.0002    constr:    0.0000
     atom:   10    charge:    0.1274    magn:   -0.0001    constr:    0.0000
     atom:   11    charge:    0.1279    magn:   -0.0001    constr:    0.0000
     atom:   12    charge:    0.1274    magn:   -0.0002    constr:    0.0000

     total cpu time spent up to now is      227.4 secs

     total energy              =    -780.60919704 Ry
     Harris-Foulkes estimate   =    -780.60920818 Ry
     estimated scf accuracy    <       0.00003223 Ry

     total magnetization       =    -0.00 Bohr mag/cell
     absolute magnetization    =     1.11 Bohr mag/cell

     iteration #  3     ecut=    50.00 Ry     beta=0.45
     Davidson diagonalization with overlap
     ethr =  3.09E-08,  avg # of iterations =  2.0
 
     Magnetic moment per site:
     atom:    1    charge:    3.5928    magn:    0.0003    constr:    0.0000
     atom:    2    charge:    3.5928    magn:    0.0003    constr:    0.0000
     atom:    3    charge:    6.0583    magn:    0.0023    constr:    0.0000
     atom:    4    charge:    6.0587    magn:   -0.0024    constr:    0.0000
     atom:    5    charge:    0.1276    magn:    0.0001    constr:    0.0000
     atom:    6    charge:    0.1275    magn:    0.0001    constr:    0.0000
     atom:    7    charge:    0.1275    magn:    0.0001    constr:    0.0000
     atom:    8    charge:    0.1276    magn:    0.0001    constr:    0.0000
     atom:    9    charge:    0.1274    magn:    0.0002    constr:    0.0000
     atom:   10    charge:    0.1274    magn:   -0.0001    constr:    0.0000
     atom:   11    charge:    0.1279    magn:   -0.0001    constr:    0.0000
     atom:   12    charge:    0.1274    magn:   -0.0002    constr:    0.0000

     total cpu time spent up to now is      227.9 secs

     End of self-consistent calculation

 ------ SPIN UP ------------


          k = 0.0000 0.0000 0.0000 ( 11245 PWs)   bands (ev):

    -7.1658  -7.0881  -7.0877  -7.0684  -7.0432  -7.0418  -7.0322  -7.0114
    -7.0063  -6.9797  -6.2636  -6.2502  -6.2483  -6.2418  -6.1721  -6.1713
    -6.1575  -6.1488  -6.1293  -6.0967  -6.0513  -4.5177  -4.5100  -4.1496
    -2.8111  -2.4133  -2.4100  -1.4190  -0.6657   0.2178   0.8184   2.6415
     2.6440   2.6876   2.8477   2.8484   3.1744   4.8983   5.0579   5.0598
     5.8784   6.3215   6.9978   7.0264   7.2161   7.3782   7.5974   8.7588
     9.1842   9.2447   9.2458   9.4487   9.4570   9.9375   9.9960  10.0424
    10.1339  10.1657  10.2796  12.1172

 ------ SPIN DOWN ----------


          k = 0.0000 0.0000 0.0000 ( 11245 PWs)   bands (ev):

    -7.1660  -7.0877  -7.0871  -7.0712  -7.0458  -7.0455  -7.0271  -7.0144
    -7.0087  -6.9852  -6.2610  -6.2482  -6.2458  -6.2404  -6.1696  -6.1688
    -6.1550  -6.1465  -6.1270  -6.0938  -6.0497  -4.5177  -4.5101  -4.1499
    -2.8106  -2.4130  -2.4106  -1.4188  -0.6691   0.2174   0.8219   2.6407
     2.6419   2.6859   2.8467   2.8475   3.1763   4.8986   5.0568   5.0581
     5.8753   6.3264   6.9981   7.0257   7.2174   7.3758   7.5936   8.7577
     9.1844   9.2450   9.2457   9.4489   9.4557   9.9362   9.9928  10.0420
    10.1332  10.1674  10.2767  12.1136

     the Fermi energy is     7.4863 ev

!    total energy              =    -780.60920157 Ry
     Harris-Foulkes estimate   =    -780.60920298 Ry
     estimated scf accuracy    <       0.00000231 Ry

     total magnetization       =    -0.00 Bohr mag/cell
     absolute magnetization    =     1.10 Bohr mag/cell

     convergence has been achieved in   3 iterations

     Forces acting on atoms (Ry/au):

     atom    1 type  1   force =    -0.00246801   -0.00016028    0.00045882
     atom    2 type  1   force =     0.00147322   -0.00083130   -0.00145691
     atom    3 type  2   force =    -0.00510307   -0.00505679    0.00177937
     atom    4 type  2   force =    -0.00350009    0.00243656   -0.00054352
     atom    5 type  3   force =    -0.00351733    0.00401122    0.01765447
     atom    6 type  3   force =     0.00334746   -0.00179338   -0.01788524
     atom    7 type  3   force =     0.00035313   -0.00353915    0.01900111
     atom    8 type  3   force =     0.00564450    0.00064773    0.01730563
     atom    9 type  3   force =     0.00277144   -0.00186696    0.01910468
     atom   10 type  3   force =     0.00166590    0.00434283   -0.01977467
     atom   11 type  3   force =    -0.00222277    0.00251191   -0.01672333
     atom   12 type  3   force =     0.00155563   -0.00070238   -0.01892040

     Total force =     0.053899     Total SCF correction =     0.006048
     SCF correction compared to forces is large: reduce conv_thr to get better values
