
     Program PWSCF v.5.2.0 starts on  4Nov2016 at 13:15:59 

     This program is part of the open-source Quantum ESPRESSO suite
     for quantum simulation of materials; please cite
         "P. Giannozzi et al., J. Phys.:Condens. Matter 21 395502 (2009);
          URL http://www.quantum-espresso.org", 
     in publications or presentations arising from this work. More details at
     http://www.quantum-espresso.org/quote

     Parallel version (MPI), running on    12 processors
     R & G space division:  proc/nbgrp/npool/nimage =      12
     Waiting for input...
     Reading input from standard input
     Message from routine read_cards :
     DEPRECATED: no units specified in CELL_PARAMETERS card

     Current dimensions of program PWSCF are:
     Max number of different atomic species (ntypx) = 10
     Max number of k-points (npk) =  40000
     Max angular momentum in pseudopotentials (lmaxx) =  3
               file Ga.rel-revpbe-dn-rrkjus_psl.0.2.UPF: wavefunction(s)  4S 3D 3D renormalized
               file Sb.rel-revpbe-n-rrkjus_psl.0.3.1.UPF: wavefunction(s)  5S 5P 5P renormalized

     Subspace diagonalization in iterative solution of the eigenvalue problem:
     a serial algorithm will be used

     Found symmetry operation: I + (  0.5000  0.5000  0.0000)
     This is a supercell, fractional translations are disabled
 
     Parallelization info
     --------------------
     sticks:   dense  smooth     PW     G-vecs:    dense   smooth      PW
     Min         177     177     44                 6157     6157     764
     Max         179     179     45                 6158     6158     766
     Sum        2129    2129    529                73885    73885    9171
 


     bravais-lattice index     =            0
     lattice parameter (alat)  =       1.8900  a.u.
     unit-cell volume          =    1546.0155 (a.u.)^3
     number of atoms/cell      =           12
     number of atomic types    =            2
     number of electrons       =        92.00
     number of Kohn-Sham states=          100
     kinetic-energy cutoff     =      50.0000  Ry
     charge density cutoff     =     200.0000  Ry
     convergence threshold     =      1.0E-05
     mixing beta               =       0.4500
     number of iterations used =            8  plain     mixing
     Exchange-correlation      = REVPBE ( 1  4  4  4 0 0)
     nstep                     =           50

     Non magnetic calculation with spin-orbit


     celldm(1)=   1.890000  celldm(2)=   0.000000  celldm(3)=   0.000000
     celldm(4)=   0.000000  celldm(5)=   0.000000  celldm(6)=   0.000000

     crystal axes: (cart. coord. in units of alat)
               a(1) = (   6.118000   0.000000   0.000000 )  
               a(2) = (   0.000000   6.118000   0.000000 )  
               a(3) = (   0.000000   0.000000   6.118000 )  

     reciprocal axes: (cart. coord. in units 2 pi/alat)
               b(1) = (  0.163452  0.000000  0.000000 )  
               b(2) = (  0.000000  0.163452  0.000000 )  
               b(3) = (  0.000000  0.000000  0.163452 )  


     PseudoPot. # 1 for Ga read from file:
     ./Ga.rel-revpbe-dn-rrkjus_psl.0.2.UPF
     MD5 check sum: db2b2e76a47933ecf454094ea25aaeba
     Pseudo is Ultrasoft + core correction, Zval = 13.0
     Generated using "atomic" code by A. Dal Corso  v.5.0.99 svn rev. 10869
     Using radial grid of 1205 points, 10 beta functions with: 
                l(1) =   0
                l(2) =   0
                l(3) =   1
                l(4) =   1
                l(5) =   1
                l(6) =   1
                l(7) =   2
                l(8) =   2
                l(9) =   2
               l(10) =   2
     Q(r) pseudized with 0 coefficients 


     PseudoPot. # 2 for Sb read from file:
     ./Sb.rel-revpbe-n-rrkjus_psl.0.3.1.UPF
     MD5 check sum: 15ec63454f17e97aa817e227f21fc451
     Pseudo is Ultrasoft + core correction, Zval =  5.0
     Generated using "atomic" code by A. Dal Corso  v.5.0.2 svn rev. 10551
     Using radial grid of 1243 points, 10 beta functions with: 
                l(1) =   0
                l(2) =   0
                l(3) =   1
                l(4) =   1
                l(5) =   1
                l(6) =   1
                l(7) =   2
                l(8) =   2
                l(9) =   2
               l(10) =   2
     Q(r) pseudized with 0 coefficients 


     atomic species   valence    mass     pseudopotential
        Ga            13.00    69.72300     Ga( 1.00)
        Sb             5.00   121.76000     Sb( 1.00)

     No symmetry found



   Cartesian axes

     site n.     atom                  positions (alat units)
         1           Ga  tau(   1) = (   0.0000000   0.0000000   0.0000000  )
         2           Ga  tau(   2) = (   3.0590000   3.0590000   0.0000000  )
         3           Ga  tau(   3) = (   3.0590000   0.0000000   3.0590000  )
         4           Ga  tau(   4) = (   0.0000000   3.0590000   3.0590000  )
         5           Sb  tau(   5) = (   1.5295000   1.5295000   1.5295000  )
         6           Sb  tau(   6) = (   1.5295000   1.5295000   4.5885000  )
         7           Sb  tau(   7) = (   1.5295000   4.5885000   1.5295000  )
         8           Sb  tau(   8) = (   4.5885000   1.5295000   1.5295000  )
         9           Sb  tau(   9) = (   4.5885000   4.5885000   1.5295000  )
        10           Sb  tau(  10) = (   1.5295000   4.5885000   4.5885000  )
        11           Sb  tau(  11) = (   4.5885000   1.5295000   4.5885000  )
        12           Sb  tau(  12) = (   4.5885000   4.5885000   4.5885000  )

     number of k points=     1  gaussian smearing, width (Ry)=  0.0050
                       cart. coord. in units 2pi/alat
        k(    1) = (   0.0000000   0.0000000   0.0000000), wk =   1.0000000

     Dense  grid:    73885 G-vectors     FFT dimensions: (  54,  54,  54)

     Largest allocated arrays     est. size (Mb)     dimensions
        Kohn-Sham Wavefunctions         2.33 Mb     (    1530,  100)
        NL pseudopotentials             4.76 Mb     (     765,  408)
        Each V/rho on FFT grid          0.22 Mb     (   14580)
        Each G-vector array             0.05 Mb     (    6158)
        G-vector shells                 0.00 Mb     (     540)
     Largest temporary arrays     est. size (Mb)     dimensions
        Auxiliary wavefunctions         9.34 Mb     (    1530,  400)
        Each subspace H/S matrix        2.44 Mb     (     400,  400)
        Each <psi_i|beta_j> matrix      1.25 Mb     (     408,   2,  100)
        Arrays for rho mixing           1.78 Mb     (   14580,    8)

     Check: negative/imaginary core charge=   -0.000002    0.000000

     Initial potential from superposition of free atoms

     starting charge   91.98209, renormalised to   92.00000
     Starting wfc are  136 randomized atomic wfcs

     total cpu time spent up to now is        2.2 secs

     per-process dynamical memory:    61.2 Mb

     Self-consistent Calculation

     iteration #  1     ecut=    50.00 Ry     beta=0.45
     Davidson diagonalization with overlap
     ethr =  1.00E-02,  avg # of iterations =  3.0

     Threshold (ethr) on eigenvalues was too large:
     Diagonalizing with lowered threshold

     Davidson diagonalization with overlap
     ethr =  1.41E-04,  avg # of iterations =  6.0

     total cpu time spent up to now is        4.6 secs

     total energy              =    -832.56702487 Ry
     Harris-Foulkes estimate   =    -832.61792789 Ry
     estimated scf accuracy    <       0.15814555 Ry

     iteration #  2     ecut=    50.00 Ry     beta=0.45
     Davidson diagonalization with overlap
     ethr =  1.72E-04,  avg # of iterations =  1.0

     total cpu time spent up to now is        5.7 secs

     total energy              =    -832.56227784 Ry
     Harris-Foulkes estimate   =    -832.57283256 Ry
     estimated scf accuracy    <       0.03144400 Ry

     iteration #  3     ecut=    50.00 Ry     beta=0.45
     Davidson diagonalization with overlap
     ethr =  3.42E-05,  avg # of iterations =  5.0

     total cpu time spent up to now is        7.0 secs

     total energy              =    -832.56706988 Ry
     Harris-Foulkes estimate   =    -832.56796125 Ry
     estimated scf accuracy    <       0.00167802 Ry

     iteration #  4     ecut=    50.00 Ry     beta=0.45
     Davidson diagonalization with overlap
     ethr =  1.82E-06,  avg # of iterations =  3.0

     total cpu time spent up to now is        8.2 secs

     total energy              =    -832.56749765 Ry
     Harris-Foulkes estimate   =    -832.56767555 Ry
     estimated scf accuracy    <       0.00056239 Ry

     iteration #  5     ecut=    50.00 Ry     beta=0.45
     Davidson diagonalization with overlap
     ethr =  6.11E-07,  avg # of iterations =  1.0

     total cpu time spent up to now is        9.2 secs

     total energy              =    -832.56745646 Ry
     Harris-Foulkes estimate   =    -832.56752051 Ry
     estimated scf accuracy    <       0.00010412 Ry

     iteration #  6     ecut=    50.00 Ry     beta=0.45
     Davidson diagonalization with overlap
     ethr =  1.13E-07,  avg # of iterations =  3.0

     total cpu time spent up to now is       10.4 secs

     End of self-consistent calculation

          k = 0.0000 0.0000 0.0000 (  9171 PWs)   bands (ev):

    -3.5571  -3.5571  -3.5567  -3.5567  -3.5566  -3.5566  -3.5211  -3.5211
    -3.5211  -3.5211  -3.4952  -3.4952  -3.4948  -3.4948  -3.4947  -3.4947
    -3.1852  -3.1852  -3.1197  -3.1197  -3.1172  -3.1172  -3.1170  -3.1170
    -3.1165  -3.1165  -3.0370  -3.0370  -3.0367  -3.0367  -3.0366  -3.0366
    -3.0330  -3.0330  -3.0330  -3.0330  -3.0233  -3.0233  -3.0231  -3.0231
    -3.0231  -3.0231   0.0044   0.0044   0.0044   0.0044   0.0045   0.0045
     2.2627   2.2627   2.2627   2.2627   2.2628   2.2628   3.5793   3.5793
     3.5793   3.5793   3.5794   3.5794   5.4931   5.4931   5.4931   5.4931
     5.4931   5.4931   5.8067   5.8067   5.8067   5.8067   5.8067   5.8067
     6.5401   6.5401   8.4321   8.4321   9.1574   9.1574   9.1574   9.1574
     9.9903   9.9903   9.9903   9.9903   9.9903   9.9903  10.7130  10.7130
    11.1006  11.1006  11.1006  11.1006  11.9657  11.9657  14.3083  14.3083
    14.8229  14.8229  14.8229  14.8230

     the Fermi energy is    11.4618 ev

!    total energy              =    -832.56749183 Ry
     Harris-Foulkes estimate   =    -832.56749595 Ry
     estimated scf accuracy    <       0.00000544 Ry

     convergence has been achieved in   6 iterations

     Forces acting on atoms (Ry/au):

     atom    1 type  1   force =     0.00004396    0.00042955   -0.00016938
     atom    2 type  1   force =    -0.00003096   -0.00044117   -0.00017428
     atom    3 type  1   force =     0.00002766    0.00044399    0.00014180
     atom    4 type  1   force =     0.00000030   -0.00042766    0.00015099
     atom    5 type  2   force =    -0.00000696   -0.00001069    0.00001821
     atom    6 type  2   force =    -0.00001174   -0.00000519    0.00000079
     atom    7 type  2   force =    -0.00001423    0.00000893    0.00001416
     atom    8 type  2   force =    -0.00000214   -0.00000890    0.00001401
     atom    9 type  2   force =     0.00000177    0.00000452    0.00001244
     atom   10 type  2   force =    -0.00000771    0.00000992   -0.00000825
     atom   11 type  2   force =    -0.00000072   -0.00001278   -0.00000020
     atom   12 type  2   force =     0.00000078    0.00000947   -0.00000029

     Total force =     0.000931     Total SCF correction =     0.001436
     SCF correction compared to forces is large: reduce conv_thr to get better values

     Molecular Dynamics Calculation

     Starting temperature  =   300.00 K

     temperature is controlled by Andersen thermostat
     Collision frequency = 1.0000/timestep
     mass Ga               =    69.72
     mass Sb               =   121.76
     Time step             =    20.67 a.u.,  1.0000 femto-seconds

     Entering Dynamics:    iteration =     1
                           time      =   0.0010 pico-seconds


     Andersen thermostat:   12 collisions

ATOMIC_POSITIONS (alat)
Ga      -0.003382061   0.000865504   0.000906920
Ga       3.058428178   3.059665947   0.002512940
Ga       3.060230343   0.002155143   3.056948876
Ga      -0.001064882   3.058639648   3.059729300
Sb       1.531067281   1.527311607   1.528796231
Sb       1.529209279   1.527354130   4.588496386
Sb       1.531967444   4.587709229   1.531382277
Sb       4.589481898   1.529610697   1.527999628
Sb       4.586607860   4.587767974   1.526717001
Sb       1.530609496   4.589083295   4.589859805
Sb       4.588800613   1.532736652   4.588211354
Sb       4.586425480   4.588521723   4.589335926


     kinetic energy (Ekin) =     0.03494024 Ry
     temperature           =   334.34065218 K 
     Ekin + Etot (const)   =  -832.53255159 Ry

     Linear momentum :   -0.0000000000   -0.0000000000    0.0000000000

     Writing output data file x.save
     NEW-OLD atomic charge density approx. for the potential

     Check: negative/imaginary core charge=   -0.000002    0.000000

     total cpu time spent up to now is       11.6 secs

     per-process dynamical memory:    77.2 Mb

     Self-consistent Calculation

     iteration #  1     ecut=    50.00 Ry     beta=0.45
     Davidson diagonalization with overlap
     ethr =  1.00E-06,  avg # of iterations =  3.0

     Threshold (ethr) on eigenvalues was too large:
     Diagonalizing with lowered threshold

     Davidson diagonalization with overlap
     ethr =  1.15E-08,  avg # of iterations =  3.0

     total cpu time spent up to now is       13.9 secs

     End of self-consistent calculation

          k = 0.0000 0.0000 0.0000 (  9171 PWs)   bands (ev):

    -3.5758  -3.5758  -3.5751  -3.5751  -3.5723  -3.5723  -3.5390  -3.5390
    -3.5384  -3.5384  -3.5140  -3.5140  -3.5126  -3.5126  -3.5103  -3.5103
    -3.1851  -3.1851  -3.1403  -3.1403  -3.1346  -3.1346  -3.1335  -3.1335
    -3.1315  -3.1315  -3.0572  -3.0572  -3.0569  -3.0569  -3.0523  -3.0523
    -3.0503  -3.0503  -3.0492  -3.0492  -3.0407  -3.0407  -3.0400  -3.0400
    -3.0398  -3.0398   0.0057   0.0057   0.0058   0.0058   0.0058   0.0058
     2.2548   2.2548   2.2601   2.2601   2.2647   2.2647   3.5807   3.5807
     3.5807   3.5807   3.5808   3.5808   5.4921   5.4921   5.4929   5.4929
     5.4942   5.4942   5.8053   5.8053   5.8066   5.8066   5.8075   5.8075
     6.5432   6.5432   8.4330   8.4330   9.1581   9.1581   9.1582   9.1582
     9.9832   9.9832   9.9890   9.9890   9.9946   9.9946  10.7101  10.7101
    11.0952  11.0952  11.0998  11.0998  11.9604  11.9604  14.3101  14.3101
    14.8222  14.8222  14.8276  14.8276

     the Fermi energy is    11.4620 ev

!    total energy              =    -832.56744565 Ry
     Harris-Foulkes estimate   =    -832.56745233 Ry
     estimated scf accuracy    <       0.00000976 Ry

     convergence has been achieved in   1 iterations

     Forces acting on atoms (Ry/au):

     atom    1 type  1   force =     0.00249555   -0.00222749   -0.00038674
     atom    2 type  1   force =     0.00187049   -0.00083165   -0.00132778
     atom    3 type  1   force =     0.00105061   -0.00279945   -0.00025526
     atom    4 type  1   force =     0.00136135   -0.00010282   -0.00176089
     atom    5 type  2   force =    -0.00211526    0.00144808    0.00061370
     atom    6 type  2   force =    -0.00062020    0.00130647    0.00021648
     atom    7 type  2   force =    -0.00320344    0.00075973    0.00042079
     atom    8 type  2   force =    -0.00002479    0.00087751    0.00131664
     atom    9 type  2   force =     0.00146193    0.00053646    0.00231619
     atom   10 type  2   force =    -0.00177247    0.00032373   -0.00013648
     atom   11 type  2   force =    -0.00098076   -0.00045261    0.00016311
     atom   12 type  2   force =     0.00047699    0.00116202   -0.00117976

     Total force =     0.008312     Total SCF correction =     0.007320
     SCF correction compared to forces is large: reduce conv_thr to get better values

     Entering Dynamics:    iteration =     2
                           time      =   0.0020 pico-seconds


     Andersen thermostat:   12 collisions

ATOMIC_POSITIONS (alat)
Ga      -0.004438171   0.001250986  -0.000250489
Ga       3.059643629   3.059541531   0.003140027
Ga       3.058744130   0.004587936   3.056283833
Ga       0.000516786   3.057357379   3.061337811
Sb       1.531673734   1.525975212   1.526648708
Sb       1.529225917   1.526362511   4.589931915
Sb       1.530328269   4.589173219   1.531236867
Sb       4.590983235   1.529082524   1.528579452
Sb       4.587591486   4.587528221   1.525927109
Sb       1.531710826   4.589295286   4.589644235
Sb       4.587855024   1.531784519   4.589514900
Sb       4.584654957   4.590085501   4.589078844


     kinetic energy (Ekin) =     0.01980648 Ry
     temperature           =   189.52676814 K 
     Ekin + Etot (const)   =  -832.54763917 Ry
     Message from routine dynamics:
     Total linear momentum <> 0

     Linear momentum :   -6.4870209593  -21.5517772077    1.3797580683

     Writing output data file x.save
     NEW-OLD atomic charge density approx. for the potential

     Check: negative/imaginary core charge=   -0.000002    0.000000

     total cpu time spent up to now is       15.0 secs

     per-process dynamical memory:    73.7 Mb

     Self-consistent Calculation

     iteration #  1     ecut=    50.00 Ry     beta=0.45
     Davidson diagonalization with overlap
     ethr =  1.00E-06,  avg # of iterations =  3.0

     Threshold (ethr) on eigenvalues was too large:
     Diagonalizing with lowered threshold

     Davidson diagonalization with overlap
     ethr =  1.76E-08,  avg # of iterations =  3.0

     total cpu time spent up to now is       17.3 secs

     total energy              =    -832.56741546 Ry
     Harris-Foulkes estimate   =    -832.56742514 Ry
     estimated scf accuracy    <       0.00001628 Ry

     iteration #  2     ecut=    50.00 Ry     beta=0.45
     Davidson diagonalization with overlap
     ethr =  1.77E-08,  avg # of iterations =  3.0

     total cpu time spent up to now is       18.6 secs

     End of self-consistent calculation

          k = 0.0000 0.0000 0.0000 (  9171 PWs)   bands (ev):

    -3.5662  -3.5662  -3.5651  -3.5651  -3.5637  -3.5637  -3.5297  -3.5297
    -3.5288  -3.5288  -3.5046  -3.5046  -3.5029  -3.5029  -3.5014  -3.5014
    -3.1852  -3.1852  -3.1294  -3.1294  -3.1269  -3.1269  -3.1236  -3.1236
    -3.1228  -3.1228  -3.0468  -3.0468  -3.0461  -3.0461  -3.0438  -3.0438
    -3.0416  -3.0416  -3.0400  -3.0400  -3.0316  -3.0316  -3.0308  -3.0308
    -3.0304  -3.0304   0.0051   0.0051   0.0052   0.0052   0.0052   0.0052
     2.2559   2.2559   2.2587   2.2587   2.2689   2.2689   3.5802   3.5802
     3.5802   3.5802   3.5803   3.5803   5.4918   5.4918   5.4931   5.4931
     5.4943   5.4943   5.8053   5.8053   5.8066   5.8066   5.8078   5.8078
     6.5419   6.5419   8.4327   8.4327   9.1578   9.1578   9.1579   9.1579
     9.9776   9.9776   9.9942   9.9942   9.9968   9.9968  10.7114  10.7114
    11.0954  11.0954  11.1026  11.1026  11.9630  11.9630  14.3093  14.3093
    14.8198  14.8198  14.8282  14.8282

     the Fermi energy is    11.4643 ev

!    total energy              =    -832.56741816 Ry
     Harris-Foulkes estimate   =    -832.56742040 Ry
     estimated scf accuracy    <       0.00000279 Ry

     convergence has been achieved in   2 iterations

     Forces acting on atoms (Ry/au):

     atom    1 type  1   force =     0.00171018   -0.00325130   -0.00013987
     atom    2 type  1   force =    -0.00093725    0.00031146   -0.00062438
     atom    3 type  1   force =     0.00153834   -0.00296751    0.00017869
     atom    4 type  1   force =     0.00047476    0.00219837   -0.00132644
     atom    5 type  2   force =    -0.00193201    0.00240827    0.00093150
     atom    6 type  2   force =    -0.00026376    0.00176638   -0.00055447
     atom    7 type  2   force =    -0.00217553   -0.00082652    0.00038207
     atom    8 type  2   force =     0.00049994    0.00122834    0.00157302
     atom    9 type  2   force =     0.00144367   -0.00033050    0.00315746
     atom   10 type  2   force =    -0.00160508   -0.00069242   -0.00027170
     atom   11 type  2   force =    -0.00029919    0.00050302   -0.00088541
     atom   12 type  2   force =     0.00154594   -0.00034758   -0.00242049

     Total force =     0.009021     Total SCF correction =     0.005372
     SCF correction compared to forces is large: reduce conv_thr to get better values

     Entering Dynamics:    iteration =     3
                           time      =   0.0030 pico-seconds


     Andersen thermostat:   12 collisions

ATOMIC_POSITIONS (alat)
Ga      -0.005091379  -0.001027649  -0.000876846
Ga       3.060116016   3.061138883   0.000289859
Ga       3.060156704   0.004913593   3.059046279
Ga      -0.000259747   3.056084537   3.058404283
Sb       1.529097816   1.526490606   1.527347158
Sb       1.531426266   1.526613173   4.591151442
Sb       1.530085633   4.586754616   1.529163597
Sb       4.589143775   1.530165482   1.531110288
Sb       4.588653205   4.587688185   1.525829687
Sb       1.532153088   4.591186913   4.591479048
Sb       4.586639163   1.531788140   4.589946654
Sb       4.586563831   4.589532379   4.586622872


     kinetic energy (Ekin) =     0.03586850 Ry
     temperature           =   343.22308876 K 
     Ekin + Etot (const)   =  -832.53154966 Ry
     Message from routine dynamics:
     Total linear momentum <> 0

     Linear momentum :   12.4394027105    0.6799907016   12.2241896193

     Writing output data file x.save
     NEW-OLD atomic charge density approx. for the potential

     Check: negative/imaginary core charge=   -0.000002    0.000000

     total cpu time spent up to now is       19.7 secs

     per-process dynamical memory:    74.1 Mb

     Self-consistent Calculation

     iteration #  1     ecut=    50.00 Ry     beta=0.45
     Davidson diagonalization with overlap
     ethr =  1.00E-06,  avg # of iterations =  3.0

     Threshold (ethr) on eigenvalues was too large:
     Diagonalizing with lowered threshold

     Davidson diagonalization with overlap
     ethr =  3.07E-08,  avg # of iterations =  2.0

     total cpu time spent up to now is       22.0 secs

     total energy              =    -832.56740950 Ry
     Harris-Foulkes estimate   =    -832.56742627 Ry
     estimated scf accuracy    <       0.00002819 Ry

     iteration #  2     ecut=    50.00 Ry     beta=0.45
     Davidson diagonalization with overlap
     ethr =  3.06E-08,  avg # of iterations =  3.0

     total cpu time spent up to now is       23.2 secs

     total energy              =    -832.56741666 Ry
     Harris-Foulkes estimate   =    -832.56742560 Ry
     estimated scf accuracy    <       0.00002393 Ry

     iteration #  3     ecut=    50.00 Ry     beta=0.45
     Davidson diagonalization with overlap
     ethr =  2.60E-08,  avg # of iterations =  2.0

     total cpu time spent up to now is       24.3 secs

     End of self-consistent calculation

          k = 0.0000 0.0000 0.0000 (  9171 PWs)   bands (ev):

    -3.5654  -3.5654  -3.5640  -3.5640  -3.5636  -3.5636  -3.5288  -3.5288
    -3.5284  -3.5284  -3.5042  -3.5042  -3.5017  -3.5017  -3.5012  -3.5012
    -3.1852  -3.1852  -3.1282  -3.1282  -3.1256  -3.1256  -3.1251  -3.1251
    -3.1213  -3.1213  -3.0460  -3.0460  -3.0444  -3.0444  -3.0438  -3.0438
    -3.0405  -3.0405  -3.0402  -3.0402  -3.0310  -3.0310  -3.0301  -3.0301
    -3.0300  -3.0300   0.0051   0.0051   0.0052   0.0052   0.0053   0.0053
     2.2558   2.2558   2.2590   2.2590   2.2687   2.2687   3.5803   3.5803
     3.5803   3.5803   3.5804   3.5804   5.4917   5.4917   5.4934   5.4934
     5.4942   5.4942   5.8055   5.8055   5.8062   5.8062   5.8080   5.8080
     6.5420   6.5420   8.4328   8.4328   9.1579   9.1579   9.1580   9.1580
     9.9787   9.9787   9.9926   9.9926   9.9974   9.9974  10.7114  10.7114
    11.0965  11.0965  11.1013  11.1013  11.9629  11.9629  14.3094  14.3094
    14.8212  14.8212  14.8269  14.8269

     the Fermi energy is    11.4633 ev

!    total energy              =    -832.56742063 Ry
     Harris-Foulkes estimate   =    -832.56742073 Ry
     estimated scf accuracy    <       0.00000054 Ry

     convergence has been achieved in   3 iterations

     Forces acting on atoms (Ry/au):

     atom    1 type  1   force =     0.00122716   -0.00034291    0.00036749
     atom    2 type  1   force =    -0.00050430   -0.00082592    0.00039768
     atom    3 type  1   force =    -0.00011762   -0.00321548   -0.00127187
     atom    4 type  1   force =     0.00165252    0.00212027    0.00126410
     atom    5 type  2   force =    -0.00044464    0.00079267    0.00025211
     atom    6 type  2   force =    -0.00191248    0.00199222   -0.00097992
     atom    7 type  2   force =    -0.00081356    0.00065458    0.00208345
     atom    8 type  2   force =    -0.00007161    0.00021291   -0.00025167
     atom    9 type  2   force =     0.00018155    0.00033993    0.00281804
     atom   10 type  2   force =    -0.00210632   -0.00142016   -0.00234004
     atom   11 type  2   force =     0.00142760    0.00029137   -0.00011628
     atom   12 type  2   force =     0.00148171   -0.00059946   -0.00222309

     Total force =     0.008266     Total SCF correction =     0.001968
     SCF correction compared to forces is large: reduce conv_thr to get better values

     Entering Dynamics:    iteration =     4
                           time      =   0.0040 pico-seconds


     Andersen thermostat:   12 collisions

ATOMIC_POSITIONS (alat)
Ga      -0.004986705   0.000048597   0.000869396
Ga       3.060288776   3.061992806   0.000337759
Ga       3.058008961   0.004898823   3.057501683
Ga      -0.003007621   3.059090678   3.058050597
Sb       1.528159495   1.524705471   1.527122896
Sb       1.532832229   1.526055310   4.592756732
Sb       1.529051404   4.587862914   1.528451690
Sb       4.589809857   1.529092139   1.530951693
Sb       4.590029762   4.584353126   1.524578965
Sb       1.532508325   4.592035363   4.589925035
Sb       4.587480375   1.533559446   4.590193442
Sb       4.586535824   4.589737522   4.588729927


     kinetic energy (Ekin) =     0.02712483 Ry
     temperature           =   259.55559156 K 
     Ekin + Etot (const)   =  -832.54029580 Ry
     Message from routine dynamics:
     Total linear momentum <> 0

     Linear momentum :   21.3231269597   15.8098302371   -1.5407296505

     Writing output data file x.save
     NEW-OLD atomic charge density approx. for the potential

     Check: negative/imaginary core charge=   -0.000002    0.000000

     total cpu time spent up to now is       25.3 secs

     per-process dynamical memory:    74.9 Mb

     Self-consistent Calculation

     iteration #  1     ecut=    50.00 Ry     beta=0.45
     Davidson diagonalization with overlap
     ethr =  1.00E-06,  avg # of iterations =  3.0

     Threshold (ethr) on eigenvalues was too large:
     Diagonalizing with lowered threshold

     Davidson diagonalization with overlap
     ethr =  4.26E-09,  avg # of iterations =  4.0

     total cpu time spent up to now is       27.9 secs

     End of self-consistent calculation

          k = 0.0000 0.0000 0.0000 (  9171 PWs)   bands (ev):

    -3.5659  -3.5659  -3.5646  -3.5646  -3.5628  -3.5628  -3.5291  -3.5291
    -3.5280  -3.5280  -3.5043  -3.5043  -3.5020  -3.5020  -3.5002  -3.5002
    -3.1853  -3.1853  -3.1294  -3.1294  -3.1269  -3.1269  -3.1223  -3.1223
    -3.1214  -3.1214  -3.0468  -3.0468  -3.0459  -3.0459  -3.0427  -3.0427
    -3.0414  -3.0414  -3.0386  -3.0386  -3.0305  -3.0305  -3.0298  -3.0298
    -3.0296  -3.0296   0.0049   0.0049   0.0051   0.0051   0.0052   0.0052
     2.2537   2.2537   2.2601   2.2601   2.2699   2.2699   3.5801   3.5801
     3.5803   3.5803   3.5803   3.5803   5.4914   5.4914   5.4932   5.4932
     5.4947   5.4947   5.8050   5.8050   5.8064   5.8064   5.8084   5.8084
     6.5420   6.5420   8.4327   8.4327   9.1578   9.1578   9.1579   9.1579
     9.9774   9.9774   9.9916   9.9916   9.9997   9.9997  10.7115  10.7115
    11.0949  11.0949  11.1032  11.1032  11.9630  11.9630  14.3093  14.3093
    14.8192  14.8192  14.8289  14.8289

     the Fermi energy is    11.4649 ev

!    total energy              =    -832.56735545 Ry
     Harris-Foulkes estimate   =    -832.56735696 Ry
     estimated scf accuracy    <       0.00000354 Ry

     convergence has been achieved in   1 iterations

     Forces acting on atoms (Ry/au):

     atom    1 type  1   force =     0.00301190   -0.00075908   -0.00121543
     atom    2 type  1   force =     0.00011841   -0.00471480   -0.00003053
     atom    3 type  1   force =     0.00236153   -0.00308643    0.00014360
     atom    4 type  1   force =     0.00483493   -0.00247529    0.00220231
     atom    5 type  2   force =    -0.00073837    0.00379335    0.00129797
     atom    6 type  2   force =    -0.00327335    0.00365817   -0.00219313
     atom    7 type  2   force =    -0.00060988    0.00010338    0.00199552
     atom    8 type  2   force =    -0.00170569    0.00072287    0.00029722
     atom    9 type  2   force =    -0.00183371    0.00262069    0.00373816
     atom   10 type  2   force =    -0.00307853   -0.00139691   -0.00201265
     atom   11 type  2   force =     0.00051140   -0.00001677   -0.00098012
     atom   12 type  2   force =     0.00040135    0.00155081   -0.00324292

     Total force =     0.013793     Total SCF correction =     0.008168
     SCF correction compared to forces is large: reduce conv_thr to get better values

     Entering Dynamics:    iteration =     5
                           time      =   0.0050 pico-seconds


     Andersen thermostat:   12 collisions

ATOMIC_POSITIONS (alat)
Ga      -0.003183536   0.000727360   0.001883075
Ga       3.061567660   3.061249792   0.001399698
Ga       3.056429397   0.007840835   3.057777256
Ga      -0.003258602   3.059098106   3.058632150
Sb       1.528748904   1.525025248   1.528857664
Sb       1.530412127   1.527339029   4.590598286
Sb       1.528207931   4.584912349   1.527952613
Sb       4.591601407   1.529711830   1.527547853
Sb       4.588914625   4.584900097   1.524433688
Sb       1.532510053   4.591760467   4.592892514
Sb       4.586923113   1.533660221   4.591733403
Sb       4.588372465   4.588439914   4.587014992


     kinetic energy (Ekin) =     0.03438708 Ry
     temperature           =   329.04748145 K 
     Ekin + Etot (const)   =  -832.53296837 Ry
     Message from routine dynamics:
     Total linear momentum <> 0

     Linear momentum :    6.1489144515    0.1672101573  -18.4220469186

     Writing output data file x.save
     NEW-OLD atomic charge density approx. for the potential

     Check: negative/imaginary core charge=   -0.000002    0.000000

     total cpu time spent up to now is       28.9 secs

     per-process dynamical memory:    73.7 Mb

     Self-consistent Calculation

     iteration #  1     ecut=    50.00 Ry     beta=0.45
     Davidson diagonalization with overlap
     ethr =  1.00E-06,  avg # of iterations =  3.0

     Threshold (ethr) on eigenvalues was too large:
     Diagonalizing with lowered threshold

     Davidson diagonalization with overlap
     ethr =  1.36E-08,  avg # of iterations =  3.0

     total cpu time spent up to now is       31.2 secs

     total energy              =    -832.56732477 Ry
     Harris-Foulkes estimate   =    -832.56733110 Ry
     estimated scf accuracy    <       0.00001219 Ry

     iteration #  2     ecut=    50.00 Ry     beta=0.45
     Davidson diagonalization with overlap
     ethr =  1.33E-08,  avg # of iterations =  3.0

     total cpu time spent up to now is       32.4 secs

     End of self-consistent calculation

          k = 0.0000 0.0000 0.0000 (  9171 PWs)   bands (ev):

    -3.5671  -3.5671  -3.5646  -3.5646  -3.5628  -3.5628  -3.5292  -3.5292
    -3.5283  -3.5283  -3.5056  -3.5056  -3.5009  -3.5009  -3.4994  -3.4994
    -3.1853  -3.1853  -3.1308  -3.1308  -3.1264  -3.1264  -3.1253  -3.1253
    -3.1182  -3.1182  -3.0481  -3.0481  -3.0469  -3.0469  -3.0438  -3.0438
    -3.0411  -3.0411  -3.0393  -3.0393  -3.0313  -3.0313  -3.0282  -3.0282
    -3.0275  -3.0275   0.0049   0.0049   0.0052   0.0052   0.0052   0.0052
     2.2521   2.2521   2.2609   2.2609   2.2705   2.2705   3.5801   3.5801
     3.5802   3.5802   3.5804   3.5804   5.4913   5.4913   5.4931   5.4931
     5.4950   5.4950   5.8047   5.8047   5.8065   5.8065   5.8085   5.8085
     6.5421   6.5421   8.4327   8.4327   9.1578   9.1578   9.1580   9.1580
     9.9768   9.9768   9.9895   9.9895  10.0024  10.0024  10.7115  10.7115
    11.0958  11.0958  11.1021  11.1021  11.9630  11.9630  14.3093  14.3093
    14.8203  14.8203  14.8277  14.8277

     the Fermi energy is    11.4637 ev

!    total energy              =    -832.56732474 Ry
     Harris-Foulkes estimate   =    -832.56732960 Ry
     estimated scf accuracy    <       0.00000595 Ry

     convergence has been achieved in   2 iterations

     Forces acting on atoms (Ry/au):

     atom    1 type  1   force =     0.00124058    0.00068542   -0.00273964
     atom    2 type  1   force =    -0.00263777   -0.00420917   -0.00124789
     atom    3 type  1   force =     0.00257742   -0.00269678    0.00023045
     atom    4 type  1   force =     0.00362684   -0.00213930    0.00238793
     atom    5 type  2   force =     0.00007770    0.00278448    0.00033099
     atom    6 type  2   force =    -0.00189120    0.00299708   -0.00076169
     atom    7 type  2   force =     0.00037523    0.00063769    0.00320582
     atom    8 type  2   force =    -0.00132974   -0.00029549    0.00239009
     atom    9 type  2   force =    -0.00146110    0.00284831    0.00410325
     atom   10 type  2   force =    -0.00130332   -0.00139372   -0.00314355
     atom   11 type  2   force =     0.00073990   -0.00143844   -0.00196904
     atom   12 type  2   force =    -0.00001454    0.00221991   -0.00278672

     Total force =     0.013128     Total SCF correction =     0.007929
     SCF correction compared to forces is large: reduce conv_thr to get better values

     Entering Dynamics:    iteration =     6
                           time      =   0.0060 pico-seconds


     Andersen thermostat:   12 collisions

ATOMIC_POSITIONS (alat)
Ga      -0.004349103  -0.002018961  -0.001986110
Ga       3.059232684   3.060288142   0.002966490
Ga       3.057466319   0.009747411   3.056328193
Ga      -0.003176146   3.059451954   3.054808926
Sb       1.530070896   1.526271226   1.529135971
Sb       1.530131069   1.527897981   4.590326900
Sb       1.526098518   4.583435604   1.528518083
Sb       4.591545516   1.530951951   1.528505816
Sb       4.589193428   4.583525923   1.523556939
Sb       1.536574472   4.590263994   4.593967470
Sb       4.582598698   1.535310882   4.593251207
Sb       4.590841545   4.588920499   4.588106090


     kinetic energy (Ekin) =     0.04630540 Ry
     temperature           =   443.09309264 K 
     Ekin + Etot (const)   =  -832.52101934 Ry
     Message from routine dynamics:
     Total linear momentum <> 0

     Linear momentum :    6.9833298672  -16.0662885424  -12.5992520515

     Writing output data file x.save
     NEW-OLD atomic charge density approx. for the potential

     Check: negative/imaginary core charge=   -0.000002    0.000000

     total cpu time spent up to now is       33.5 secs

     per-process dynamical memory:    74.1 Mb

     Self-consistent Calculation

     iteration #  1     ecut=    50.00 Ry     beta=0.45
     Davidson diagonalization with overlap
     ethr =  1.00E-06,  avg # of iterations =  3.0

     Threshold (ethr) on eigenvalues was too large:
     Diagonalizing with lowered threshold

     Davidson diagonalization with overlap
     ethr =  7.10E-08,  avg # of iterations =  2.0

     total cpu time spent up to now is       35.7 secs

     total energy              =    -832.56721260 Ry
     Harris-Foulkes estimate   =    -832.56725302 Ry
     estimated scf accuracy    <       0.00006528 Ry

     iteration #  2     ecut=    50.00 Ry     beta=0.45
     Davidson diagonalization with overlap
     ethr =  7.10E-08,  avg # of iterations =  3.0

     total cpu time spent up to now is       37.2 secs

     total energy              =    -832.56722966 Ry
     Harris-Foulkes estimate   =    -832.56725154 Ry
     estimated scf accuracy    <       0.00005856 Ry

     iteration #  3     ecut=    50.00 Ry     beta=0.45
     Davidson diagonalization with overlap
     ethr =  6.37E-08,  avg # of iterations =  2.0

     total cpu time spent up to now is       38.4 secs

     End of self-consistent calculation

          k = 0.0000 0.0000 0.0000 (  9171 PWs)   bands (ev):

    -3.5662  -3.5662  -3.5649  -3.5649  -3.5629  -3.5629  -3.5291  -3.5291
    -3.5282  -3.5282  -3.5046  -3.5046  -3.5025  -3.5025  -3.5000  -3.5000
    -3.1855  -3.1855  -3.1306  -3.1306  -3.1260  -3.1260  -3.1225  -3.1225
    -3.1216  -3.1216  -3.0473  -3.0473  -3.0465  -3.0465  -3.0422  -3.0422
    -3.0413  -3.0413  -3.0391  -3.0391  -3.0305  -3.0305  -3.0303  -3.0303
    -3.0296  -3.0296   0.0048   0.0048   0.0051   0.0051   0.0052   0.0052
     2.2487   2.2487   2.2630   2.2630   2.2718   2.2718   3.5801   3.5801
     3.5801   3.5801   3.5803   3.5803   5.4909   5.4909   5.4930   5.4930
     5.4954   5.4954   5.8046   5.8046   5.8062   5.8062   5.8090   5.8090
     6.5422   6.5422   8.4327   8.4327   9.1577   9.1577   9.1580   9.1580
     9.9744   9.9744   9.9868   9.9868  10.0074  10.0074  10.7116  10.7116
    11.0963  11.0963  11.1017  11.1017  11.9630  11.9630  14.3092  14.3092
    14.8206  14.8206  14.8271  14.8271

     the Fermi energy is    11.4634 ev

!    total energy              =    -832.56723924 Ry
     Harris-Foulkes estimate   =    -832.56723943 Ry
     estimated scf accuracy    <       0.00000076 Ry

     convergence has been achieved in   3 iterations

     Forces acting on atoms (Ry/au):

     atom    1 type  1   force =     0.00187362    0.00185939   -0.00020653
     atom    2 type  1   force =    -0.00146324   -0.00187918   -0.00030664
     atom    3 type  1   force =     0.00280613   -0.00563852   -0.00010378
     atom    4 type  1   force =     0.00324435   -0.00122329    0.00505800
     atom    5 type  2   force =    -0.00137007    0.00003012   -0.00052371
     atom    6 type  2   force =    -0.00363982    0.00180599   -0.00127477
     atom    7 type  2   force =     0.00095057    0.00327634    0.00329544
     atom    8 type  2   force =     0.00011103   -0.00232976    0.00140056
     atom    9 type  2   force =    -0.00259127    0.00444719    0.00425841
     atom   10 type  2   force =    -0.00173447   -0.00045087   -0.00460872
     atom   11 type  2   force =     0.00253187   -0.00169571   -0.00261023
     atom   12 type  2   force =    -0.00071870    0.00179828   -0.00437803

     Total force =     0.015759     Total SCF correction =     0.002265
     SCF correction compared to forces is large: reduce conv_thr to get better values

     Entering Dynamics:    iteration =     7
                           time      =   0.0070 pico-seconds


     Andersen thermostat:   12 collisions

ATOMIC_POSITIONS (alat)
Ga      -0.006698256  -0.002495770   0.000170461
Ga       3.059140029   3.057038029   0.002674902
Ga       3.058518309   0.008141267   3.060225566
Ga      -0.005141479   3.055405411   3.054871006
Sb       1.528210055   1.528096740   1.528480191
Sb       1.532318415   1.527365172   4.591106644
Sb       1.527875621   4.585292626   1.527805002
Sb       4.593377915   1.530989298   1.528101359
Sb       4.589986441   4.585574345   1.522842875
Sb       1.536976751   4.591427146   4.594053981
Sb       4.580105319   1.535529931   4.593586525
Sb       4.590124874   4.587673815   4.586056672


     kinetic energy (Ekin) =     0.03743109 Ry
     temperature           =   358.17539963 K 
     Ekin + Etot (const)   =  -832.52980816 Ry
     Message from routine dynamics:
     Total linear momentum <> 0

     Linear momentum :    0.6927894086  -18.9761000822   24.3433049071

     Writing output data file x.save
     NEW-OLD atomic charge density approx. for the potential

     Check: negative/imaginary core charge=   -0.000002    0.000000

     total cpu time spent up to now is       39.5 secs

     per-process dynamical memory:    74.9 Mb

     Self-consistent Calculation

     iteration #  1     ecut=    50.00 Ry     beta=0.45
     Davidson diagonalization with overlap
     ethr =  1.00E-06,  avg # of iterations =  3.0

     Threshold (ethr) on eigenvalues was too large:
     Diagonalizing with lowered threshold

     Davidson diagonalization with overlap
     ethr =  6.35E-09,  avg # of iterations =  4.0

     total cpu time spent up to now is       42.0 secs

     End of self-consistent calculation

          k = 0.0000 0.0000 0.0000 (  9171 PWs)   bands (ev):

    -3.5666  -3.5666  -3.5651  -3.5651  -3.5627  -3.5627  -3.5293  -3.5293
    -3.5280  -3.5280  -3.5047  -3.5047  -3.5025  -3.5025  -3.4997  -3.4997
    -3.1856  -3.1856  -3.1315  -3.1315  -3.1258  -3.1258  -3.1227  -3.1227
    -3.1209  -3.1209  -3.0480  -3.0480  -3.0472  -3.0472  -3.0421  -3.0421
    -3.0410  -3.0410  -3.0389  -3.0389  -3.0306  -3.0306  -3.0300  -3.0300
    -3.0291  -3.0291   0.0046   0.0046   0.0050   0.0050   0.0051   0.0051
     2.2477   2.2477   2.2634   2.2634   2.2723   2.2723   3.5799   3.5799
     3.5802   3.5802   3.5804   3.5804   5.4909   5.4909   5.4931   5.4931
     5.4954   5.4954   5.8046   5.8046   5.8063   5.8063   5.8090   5.8090
     6.5422   6.5422   8.4328   8.4328   9.1578   9.1578   9.1580   9.1580
     9.9737   9.9737   9.9859   9.9859  10.0087  10.0087  10.7114  10.7114
    11.0930  11.0930  11.1051  11.1051  11.9630  11.9630  14.3091  14.3091
    14.8166  14.8166  14.8312  14.8312

     the Fermi energy is    11.4667 ev

!    total energy              =    -832.56718163 Ry
     Harris-Foulkes estimate   =    -832.56718422 Ry
     estimated scf accuracy    <       0.00000552 Ry

     convergence has been achieved in   1 iterations

     Forces acting on atoms (Ry/au):

     atom    1 type  1   force =     0.00350513    0.00317452   -0.00191991
     atom    2 type  1   force =     0.00049530    0.00458579   -0.00106050
     atom    3 type  1   force =     0.00371833   -0.00355951   -0.00513868
     atom    4 type  1   force =     0.00462057    0.00561690    0.00204978
     atom    5 type  2   force =    -0.00033549   -0.00235880    0.00137779
     atom    6 type  2   force =    -0.00634266    0.00051884   -0.00083975
     atom    7 type  2   force =     0.00006334    0.00090408    0.00503075
     atom    8 type  2   force =    -0.00241474   -0.00368632    0.00295241
     atom    9 type  2   force =    -0.00354845    0.00141677    0.00532498
     atom   10 type  2   force =    -0.00383821   -0.00311827   -0.00365720
     atom   11 type  2   force =     0.00408961   -0.00350346   -0.00166004
     atom   12 type  2   force =    -0.00001272    0.00000946   -0.00245962

     Total force =     0.019496     Total SCF correction =     0.012876
     SCF correction compared to forces is large: reduce conv_thr to get better values

     Entering Dynamics:    iteration =     8
                           time      =   0.0080 pico-seconds


     Andersen thermostat:   12 collisions

ATOMIC_POSITIONS (alat)
Ga      -0.006764844   0.000424805  -0.000979588
Ga       3.060743097   3.055529949   0.005535043
Ga       3.058945160   0.006271048   3.059657796
Ga      -0.003337848   3.059206783   3.055216910
Sb       1.527586894   1.526095841   1.529664945
Sb       1.531421184   1.528364997   4.592318792
Sb       1.527822200   4.586248684   1.526605728
Sb       4.592440006   1.530655064   1.530007825
Sb       4.589476707   4.584789131   1.519888520
Sb       1.535476676   4.591305341   4.594688449
Sb       4.581462462   1.534005485   4.590184344
Sb       4.591132199   4.588569869   4.587822449


     kinetic energy (Ekin) =     0.03545728 Ry
     temperature           =   339.28818263 K 
     Ekin + Etot (const)   =  -832.53172435 Ry
     Message from routine dynamics:
     Total linear momentum <> 0

     Linear momentum :  -17.8849433735    3.4595754704   15.7592783547

     Writing output data file x.save
     NEW-OLD atomic charge density approx. for the potential

     Check: negative/imaginary core charge=   -0.000002    0.000000

     total cpu time spent up to now is       43.1 secs

     per-process dynamical memory:    73.7 Mb

     Self-consistent Calculation

     iteration #  1     ecut=    50.00 Ry     beta=0.45
     Davidson diagonalization with overlap
     ethr =  1.00E-06,  avg # of iterations =  3.0

     Threshold (ethr) on eigenvalues was too large:
     Diagonalizing with lowered threshold

     Davidson diagonalization with overlap
     ethr =  1.61E-08,  avg # of iterations =  3.0

     total cpu time spent up to now is       45.4 secs

     total energy              =    -832.56723565 Ry
     Harris-Foulkes estimate   =    -832.56724364 Ry
     estimated scf accuracy    <       0.00001534 Ry

     iteration #  2     ecut=    50.00 Ry     beta=0.45
     Davidson diagonalization with overlap
     ethr =  1.67E-08,  avg # of iterations =  3.0

     total cpu time spent up to now is       46.5 secs

     End of self-consistent calculation

          k = 0.0000 0.0000 0.0000 (  9171 PWs)   bands (ev):

    -3.5664  -3.5664  -3.5647  -3.5647  -3.5631  -3.5631  -3.5292  -3.5292
    -3.5282  -3.5282  -3.5049  -3.5049  -3.5021  -3.5021  -3.5001  -3.5001
    -3.1855  -3.1855  -3.1302  -3.1302  -3.1264  -3.1264  -3.1239  -3.1239
    -3.1204  -3.1204  -3.0473  -3.0473  -3.0462  -3.0462  -3.0430  -3.0430
    -3.0410  -3.0410  -3.0395  -3.0395  -3.0310  -3.0310  -3.0300  -3.0300
    -3.0291  -3.0291   0.0047   0.0047   0.0051   0.0051   0.0052   0.0052
     2.2490   2.2490   2.2618   2.2618   2.2727   2.2727   3.5801   3.5801
     3.5802   3.5802   3.5803   3.5803   5.4909   5.4909   5.4930   5.4930
     5.4955   5.4955   5.8045   5.8045   5.8062   5.8062   5.8091   5.8091
     6.5422   6.5422   8.4328   8.4328   9.1578   9.1578   9.1580   9.1580
     9.9727   9.9727   9.9885   9.9885  10.0072  10.0072  10.7115  10.7115
    11.0948  11.0948  11.1033  11.1033  11.9629  11.9629  14.3092  14.3092
    14.8190  14.8190  14.8288  14.8288

     the Fermi energy is    11.4648 ev

!    total energy              =    -832.56723784 Ry
     Harris-Foulkes estimate   =    -832.56724048 Ry
     estimated scf accuracy    <       0.00000344 Ry

     convergence has been achieved in   2 iterations

     Forces acting on atoms (Ry/au):

     atom    1 type  1   force =     0.00212854   -0.00075447    0.00017746
     atom    2 type  1   force =    -0.00136285    0.00254428    0.00005325
     atom    3 type  1   force =     0.00163351   -0.00747144   -0.00404466
     atom    4 type  1   force =     0.00352417    0.00322111    0.00249340
     atom    5 type  2   force =     0.00003954   -0.00001120    0.00119572
     atom    6 type  2   force =    -0.00423134    0.00205334   -0.00224821
     atom    7 type  2   force =     0.00053917    0.00173443    0.00399634
     atom    8 type  2   force =    -0.00102963   -0.00212826    0.00208036
     atom    9 type  2   force =    -0.00227933    0.00316023    0.00581169
     atom   10 type  2   force =    -0.00159177   -0.00187177   -0.00390933
     atom   11 type  2   force =     0.00340457   -0.00067520   -0.00178353
     atom   12 type  2   force =    -0.00077459    0.00019896   -0.00382249

     Total force =     0.016610     Total SCF correction =     0.008908
     SCF correction compared to forces is large: reduce conv_thr to get better values

     Entering Dynamics:    iteration =     9
                           time      =   0.0090 pico-seconds


     Andersen thermostat:   12 collisions

ATOMIC_POSITIONS (alat)
Ga      -0.006749098   0.003048748  -0.002851936
Ga       3.059412971   3.055228704   0.009014917
Ga       3.058594586   0.007275173   3.057883818
Ga      -0.000557277   3.059354617   3.054508454
Sb       1.526101985   1.526558218   1.530834282
Sb       1.532397245   1.529774098   4.593905085
Sb       1.526163111   4.584614930   1.526967501
Sb       4.592431152   1.531397836   1.529744917
Sb       4.589655092   4.582959955   1.519104918
Sb       1.535134854   4.590607497   4.594839700
Sb       4.581079234   1.532313201   4.587834866
Sb       4.593216824   4.589818995   4.588450778


     kinetic energy (Ekin) =     0.02673744 Ry
     temperature           =   255.84863986 K 
     Ekin + Etot (const)   =  -832.54050040 Ry
     Message from routine dynamics:
     Total linear momentum <> 0

     Linear momentum :   -4.9453398352   -8.1621661044  -19.7626463589

     Writing output data file x.save
     NEW-OLD atomic charge density approx. for the potential

     Check: negative/imaginary core charge=   -0.000002    0.000000

     total cpu time spent up to now is       47.6 secs

     per-process dynamical memory:    74.1 Mb

     Self-consistent Calculation

     iteration #  1     ecut=    50.00 Ry     beta=0.45
     Davidson diagonalization with overlap
     ethr =  1.00E-06,  avg # of iterations =  3.0

     Threshold (ethr) on eigenvalues was too large:
     Diagonalizing with lowered threshold

     Davidson diagonalization with overlap
     ethr =  2.91E-08,  avg # of iterations =  3.0

     total cpu time spent up to now is       49.9 secs

     total energy              =    -832.56717227 Ry
     Harris-Foulkes estimate   =    -832.56718863 Ry
     estimated scf accuracy    <       0.00002697 Ry

     iteration #  2     ecut=    50.00 Ry     beta=0.45
     Davidson diagonalization with overlap
     ethr =  2.93E-08,  avg # of iterations =  4.0

     total cpu time spent up to now is       51.1 secs

     total energy              =    -832.56717958 Ry
     Harris-Foulkes estimate   =    -832.56718654 Ry
     estimated scf accuracy    <       0.00001770 Ry

     iteration #  3     ecut=    50.00 Ry     beta=0.45
     Davidson diagonalization with overlap
     ethr =  1.92E-08,  avg # of iterations =  3.0

     total cpu time spent up to now is       52.2 secs

     End of self-consistent calculation

          k = 0.0000 0.0000 0.0000 (  9171 PWs)   bands (ev):

    -3.5667  -3.5667  -3.5650  -3.5650  -3.5628  -3.5628  -3.5295  -3.5295
    -3.5279  -3.5279  -3.5050  -3.5050  -3.5022  -3.5022  -3.4998  -3.4998
    -3.1856  -3.1856  -3.1308  -3.1308  -3.1274  -3.1274  -3.1219  -3.1219
    -3.1211  -3.1211  -3.0478  -3.0478  -3.0468  -3.0468  -3.0425  -3.0425
    -3.0419  -3.0419  -3.0385  -3.0385  -3.0305  -3.0305  -3.0300  -3.0300
    -3.0293  -3.0293   0.0046   0.0046   0.0050   0.0050   0.0052   0.0052
     2.2488   2.2488   2.2610   2.2610   2.2735   2.2735   3.5801   3.5801
     3.5802   3.5802   3.5804   3.5804   5.4906   5.4906   5.4929   5.4929
     5.4958   5.4958   5.8043   5.8043   5.8060   5.8060   5.8095   5.8095
     6.5423   6.5423   8.4327   8.4327   9.1577   9.1577   9.1580   9.1580
     9.9718   9.9718   9.9896   9.9896  10.0068  10.0068  10.7114  10.7114
    11.0928  11.0928  11.1054  11.1054  11.9629  11.9629  14.3090  14.3090
    14.8164  14.8164  14.8314  14.8314

     the Fermi energy is    11.4668 ev

!    total energy              =    -832.56718259 Ry
     Harris-Foulkes estimate   =    -832.56718284 Ry
     estimated scf accuracy    <       0.00000059 Ry

     convergence has been achieved in   3 iterations

     Forces acting on atoms (Ry/au):

     atom    1 type  1   force =     0.00277749   -0.00030937    0.00055045
     atom    2 type  1   force =    -0.00055244    0.00130942   -0.00302613
     atom    3 type  1   force =     0.00104811   -0.00686974   -0.00284936
     atom    4 type  1   force =     0.00191385    0.00084630    0.00495543
     atom    5 type  2   force =     0.00055309   -0.00144853    0.00091671
     atom    6 type  2   force =    -0.00362386    0.00137976   -0.00257962
     atom    7 type  2   force =     0.00099131    0.00389664    0.00330355
     atom    8 type  2   force =    -0.00103461   -0.00284118    0.00178713
     atom    9 type  2   force =    -0.00229029    0.00471456    0.00613999
     atom   10 type  2   force =    -0.00016027   -0.00078790   -0.00374399
     atom   11 type  2   force =     0.00275721    0.00096521   -0.00129774
     atom   12 type  2   force =    -0.00237959   -0.00085518   -0.00415643

     Total force =     0.016814     Total SCF correction =     0.002422
     SCF correction compared to forces is large: reduce conv_thr to get better values

     Entering Dynamics:    iteration =    10
                           time      =   0.0100 pico-seconds


     Andersen thermostat:   12 collisions

ATOMIC_POSITIONS (alat)
Ga      -0.007379928   0.008547862  -0.003886857
Ga       3.059252351   3.055210236   0.008693602
Ga       3.057025027   0.006566326   3.057454039
Ga       0.000174072   3.054903076   3.052070950
Sb       1.525236609   1.525119936   1.530210816
Sb       1.533673549   1.530528579   4.594529619
Sb       1.526450822   4.584467070   1.526406820
Sb       4.593228860   1.532702293   1.530813834
Sb       4.590808356   4.582793593   1.518757034
Sb       1.536135260   4.590820390   4.594651462
Sb       4.578566936   1.531733326   4.588385494
Sb       4.593012293   4.589696155   4.590345468


     kinetic energy (Ekin) =     0.02841723 Ry
     temperature           =   271.92242821 K 
     Ekin + Etot (const)   =  -832.53876536 Ry
     Message from routine dynamics:
     Total linear momentum <> 0

     Linear momentum :  -24.2504461894    5.1048654479  -18.5165326932

     Writing output data file x.save
     NEW-OLD atomic charge density approx. for the potential

     Check: negative/imaginary core charge=   -0.000002    0.000000

     total cpu time spent up to now is       53.3 secs

     per-process dynamical memory:    74.9 Mb

     Self-consistent Calculation

     iteration #  1     ecut=    50.00 Ry     beta=0.45
     Davidson diagonalization with overlap
     ethr =  1.00E-06,  avg # of iterations =  3.0

     Threshold (ethr) on eigenvalues was too large:
     Diagonalizing with lowered threshold

     Davidson diagonalization with overlap
     ethr =  7.18E-09,  avg # of iterations =  4.0

     total cpu time spent up to now is       55.7 secs

     End of self-consistent calculation

          k = 0.0000 0.0000 0.0000 (  9171 PWs)   bands (ev):

    -3.5672  -3.5672  -3.5650  -3.5650  -3.5628  -3.5628  -3.5296  -3.5296
    -3.5279  -3.5279  -3.5058  -3.5058  -3.5014  -3.5014  -3.4993  -3.4993
    -3.1859  -3.1859  -3.1316  -3.1316  -3.1263  -3.1263  -3.1248  -3.1248
    -3.1185  -3.1185  -3.0485  -3.0485  -3.0472  -3.0472  -3.0431  -3.0431
    -3.0410  -3.0410  -3.0395  -3.0395  -3.0310  -3.0310  -3.0289  -3.0289
    -3.0278  -3.0278   0.0044   0.0044   0.0048   0.0048   0.0052   0.0052
     2.2470   2.2470   2.2614   2.2614   2.2747   2.2747   3.5799   3.5799
     3.5802   3.5802   3.5804   3.5804   5.4904   5.4904   5.4930   5.4930
     5.4960   5.4960   5.8042   5.8042   5.8061   5.8061   5.8097   5.8097
     6.5424   6.5424   8.4327   8.4327   9.1577   9.1577   9.1580   9.1580
     9.9699   9.9699   9.9887   9.9887  10.0092  10.0092  10.7114  10.7114
    11.0906  11.0906  11.1080  11.1080  11.9630  11.9630  14.3088  14.3088
    14.8135  14.8135  14.8344  14.8344

     the Fermi energy is    11.4692 ev

!    total energy              =    -832.56706270 Ry
     Harris-Foulkes estimate   =    -832.56706610 Ry
     estimated scf accuracy    <       0.00000555 Ry

     convergence has been achieved in   1 iterations

     Forces acting on atoms (Ry/au):

     atom    1 type  1   force =     0.00395166   -0.00058438    0.00093399
     atom    2 type  1   force =    -0.00041003   -0.00172085   -0.00291600
     atom    3 type  1   force =     0.00208911   -0.00374426    0.00034926
     atom    4 type  1   force =     0.00245744    0.00045939    0.00885751
     atom    5 type  2   force =     0.00164157   -0.00105556    0.00061261
     atom    6 type  2   force =    -0.00452333    0.00166679   -0.00401936
     atom    7 type  2   force =    -0.00020666    0.00378805    0.00255203
     atom    8 type  2   force =    -0.00278635   -0.00344328    0.00121224
     atom    9 type  2   force =    -0.00211013    0.00536671    0.00614624
     atom   10 type  2   force =    -0.00230728   -0.00094354   -0.00454213
     atom   11 type  2   force =     0.00324954    0.00150727   -0.00292019
     atom   12 type  2   force =    -0.00104552   -0.00129633   -0.00626620

     Total force =     0.019456     Total SCF correction =     0.009824
     SCF correction compared to forces is large: reduce conv_thr to get better values

     Entering Dynamics:    iteration =    11
                           time      =   0.0110 pico-seconds


     Andersen thermostat:   12 collisions

ATOMIC_POSITIONS (alat)
Ga      -0.010729231   0.006333427  -0.001722439
Ga       3.061871452   3.056391767   0.006347499
Ga       3.055263747   0.007575333   3.055518112
Ga      -0.001871496   3.054349787   3.052207088
Sb       1.524524967   1.524513635   1.531105746
Sb       1.534494739   1.529975764   4.593348618
Sb       1.524919056   4.585924598   1.526751401
Sb       4.592736978   1.534092881   1.532383702
Sb       4.592056829   4.582635243   1.518361034
Sb       1.535714486   4.591315873   4.593306931
Sb       4.579531138   1.531608948   4.587962451
Sb       4.595732524   4.588124912   4.592015308


     kinetic energy (Ekin) =     0.02770037 Ry
     temperature           =   265.06286889 K 
     Ekin + Etot (const)   =  -832.53936233 Ry
     Message from routine dynamics:
     Total linear momentum <> 0

     Linear momentum :  -18.8346712364   11.0570663306   -6.7076984861

     Writing output data file x.save
     NEW-OLD atomic charge density approx. for the potential

     Check: negative/imaginary core charge=   -0.000002    0.000000

     total cpu time spent up to now is       56.8 secs

     per-process dynamical memory:    73.7 Mb

     Self-consistent Calculation

     iteration #  1     ecut=    50.00 Ry     beta=0.45
     Davidson diagonalization with overlap
     ethr =  1.00E-06,  avg # of iterations =  3.0

     Threshold (ethr) on eigenvalues was too large:
     Diagonalizing with lowered threshold

     Davidson diagonalization with overlap
     ethr =  4.04E-08,  avg # of iterations =  5.0

     total cpu time spent up to now is       59.1 secs

     total energy              =    -832.56697773 Ry
     Harris-Foulkes estimate   =    -832.56700152 Ry
     estimated scf accuracy    <       0.00003866 Ry

     iteration #  2     ecut=    50.00 Ry     beta=0.45
     Davidson diagonalization with overlap
     ethr =  4.20E-08,  avg # of iterations =  3.0

     total cpu time spent up to now is       60.3 secs

     total energy              =    -832.56698786 Ry
     Harris-Foulkes estimate   =    -832.56699979 Ry
     estimated scf accuracy    <       0.00003142 Ry

     iteration #  3     ecut=    50.00 Ry     beta=0.45
     Davidson diagonalization with overlap
     ethr =  3.41E-08,  avg # of iterations =  2.0

     total cpu time spent up to now is       61.4 secs

     End of self-consistent calculation

          k = 0.0000 0.0000 0.0000 (  9171 PWs)   bands (ev):

    -3.5667  -3.5667  -3.5651  -3.5651  -3.5631  -3.5631  -3.5299  -3.5299
    -3.5278  -3.5278  -3.5053  -3.5053  -3.5021  -3.5021  -3.5000  -3.5000
    -3.1860  -3.1860  -3.1304  -3.1304  -3.1277  -3.1277  -3.1230  -3.1230
    -3.1204  -3.1204  -3.0478  -3.0478  -3.0466  -3.0466  -3.0429  -3.0429
    -3.0420  -3.0420  -3.0388  -3.0388  -3.0307  -3.0307  -3.0299  -3.0299
    -3.0294  -3.0294   0.0041   0.0041   0.0048   0.0048   0.0052   0.0052
     2.2493   2.2493   2.2596   2.2596   2.2741   2.2741   3.5798   3.5798
     3.5801   3.5801   3.5803   3.5803   5.4907   5.4907   5.4931   5.4931
     5.4959   5.4959   5.8044   5.8044   5.8061   5.8061   5.8096   5.8096
     6.5424   6.5424   8.4327   8.4327   9.1576   9.1576   9.1580   9.1580
     9.9706   9.9706   9.9912   9.9912  10.0058  10.0058  10.7113  10.7113
    11.0895  11.0895  11.1094  11.1094  11.9629  11.9629  14.3086  14.3086
    14.8119  14.8119  14.8360  14.8360

     the Fermi energy is    11.4705 ev

!    total energy              =    -832.56699314 Ry
     Harris-Foulkes estimate   =    -832.56699333 Ry
     estimated scf accuracy    <       0.00000058 Ry

     convergence has been achieved in   3 iterations

     Forces acting on atoms (Ry/au):

     atom    1 type  1   force =     0.00489328    0.00007495   -0.00097446
     atom    2 type  1   force =    -0.00257834   -0.00010027   -0.00156970
     atom    3 type  1   force =     0.00419053   -0.00712704   -0.00097735
     atom    4 type  1   force =     0.00333036    0.00249141    0.00790518
     atom    5 type  2   force =     0.00214613    0.00013076   -0.00095405
     atom    6 type  2   force =    -0.00467714    0.00155767   -0.00158295
     atom    7 type  2   force =     0.00136597    0.00212971    0.00213836
     atom    8 type  2   force =    -0.00338803   -0.00390124    0.00066484
     atom    9 type  2   force =    -0.00384273    0.00542971    0.00770697
     atom   10 type  2   force =    -0.00133584   -0.00093444   -0.00322232
     atom   11 type  2   force =     0.00269385    0.00006771   -0.00188752
     atom   12 type  2   force =    -0.00279803    0.00018106   -0.00724701

     Total force =     0.021011     Total SCF correction =     0.002168
     SCF correction compared to forces is large: reduce conv_thr to get better values

     Entering Dynamics:    iteration =    12
                           time      =   0.0120 pico-seconds


     Andersen thermostat:   12 collisions

ATOMIC_POSITIONS (alat)
Ga      -0.010889555   0.009880470  -0.000288504
Ga       3.065127889   3.053753889   0.004076581
Ga       3.054034054   0.008021527   3.055904643
Ga       0.002656892   3.052338771   3.051220450
Sb       1.525450133   1.526903986   1.532736581
Sb       1.532841244   1.530272101   4.594434630
Sb       1.525561763   4.586688410   1.526676943
Sb       4.589576102   1.535126233   1.531183874
Sb       4.591580861   4.581542366   1.520953155
Sb       1.536832473   4.590539066   4.592227581
Sb       4.578737657   1.531398350   4.588061592
Sb       4.595468648   4.586096788   4.589783750


     kinetic energy (Ekin) =     0.03978995 Ry
     temperature           =   380.74722622 K 
     Ekin + Etot (const)   =  -832.52720319 Ry
     Message from routine dynamics:
     Total linear momentum <> 0

     Linear momentum :   15.5611465875    1.4407721629    7.6412213775

     Writing output data file x.save
     NEW-OLD atomic charge density approx. for the potential

     Check: negative/imaginary core charge=   -0.000002    0.000000

     total cpu time spent up to now is       62.5 secs

     per-process dynamical memory:    74.9 Mb

     Self-consistent Calculation

     iteration #  1     ecut=    50.00 Ry     beta=0.45
     Davidson diagonalization with overlap
     ethr =  1.00E-06,  avg # of iterations =  3.0

     Threshold (ethr) on eigenvalues was too large:
     Diagonalizing with lowered threshold

     Davidson diagonalization with overlap
     ethr =  6.75E-09,  avg # of iterations =  4.0

     total cpu time spent up to now is       64.9 secs

     End of self-consistent calculation

          k = 0.0000 0.0000 0.0000 (  9171 PWs)   bands (ev):

    -3.5670  -3.5670  -3.5652  -3.5652  -3.5629  -3.5629  -3.5297  -3.5297
    -3.5282  -3.5282  -3.5053  -3.5053  -3.5023  -3.5023  -3.5000  -3.5000
    -3.1859  -3.1859  -3.1312  -3.1312  -3.1270  -3.1270  -3.1231  -3.1231
    -3.1207  -3.1207  -3.0481  -3.0481  -3.0471  -3.0471  -3.0428  -3.0428
    -3.0420  -3.0420  -3.0388  -3.0388  -3.0308  -3.0308  -3.0301  -3.0301
    -3.0293  -3.0293   0.0043   0.0043   0.0048   0.0048   0.0052   0.0052
     2.2492   2.2492   2.2615   2.2615   2.2723   2.2723   3.5799   3.5799
     3.5801   3.5801   3.5803   3.5803   5.4906   5.4906   5.4930   5.4930
     5.4960   5.4960   5.8041   5.8041   5.8062   5.8062   5.8096   5.8096
     6.5424   6.5424   8.4328   8.4328   9.1577   9.1577   9.1580   9.1580
     9.9726   9.9726   9.9888   9.9888  10.0060  10.0060  10.7116  10.7116
    11.0924  11.0924  11.1063  11.1063  11.9629  11.9629  14.3089  14.3089
    14.8155  14.8155  14.8321  14.8321

     the Fermi energy is    11.4673 ev

!    total energy              =    -832.56698787 Ry
     Harris-Foulkes estimate   =    -832.56699062 Ry
     estimated scf accuracy    <       0.00000594 Ry

     convergence has been achieved in   1 iterations

     Forces acting on atoms (Ry/au):

     atom    1 type  1   force =     0.00271949   -0.00338439   -0.00025006
     atom    2 type  1   force =    -0.00594194    0.00303756    0.00110298
     atom    3 type  1   force =     0.00300131   -0.00854048   -0.00192407
     atom    4 type  1   force =    -0.00142766    0.00506189    0.00757742
     atom    5 type  2   force =     0.00270073   -0.00098751   -0.00227004
     atom    6 type  2   force =    -0.00346568    0.00057197   -0.00117560
     atom    7 type  2   force =     0.00202655    0.00235893    0.00008639
     atom    8 type  2   force =    -0.00070012   -0.00483058    0.00177488
     atom    9 type  2   force =    -0.00196232    0.00616346    0.00617852
     atom   10 type  2   force =    -0.00153884   -0.00010573   -0.00163664
     atom   11 type  2   force =     0.00468475   -0.00092595   -0.00344019
     atom   12 type  2   force =    -0.00009625    0.00158083   -0.00602360

     Total force =     0.021394     Total SCF correction =     0.008275
     SCF correction compared to forces is large: reduce conv_thr to get better values

     Entering Dynamics:    iteration =    13
                           time      =   0.0130 pico-seconds


     Andersen thermostat:   12 collisions

ATOMIC_POSITIONS (alat)
Ga      -0.008827731   0.009632820   0.000835622
Ga       3.065529385   3.051271746   0.007283225
Ga       3.052065850   0.005456277   3.054898623
Ga       0.003380130   3.050845293   3.051631357
Sb       1.523138368   1.526594664   1.530116743
Sb       1.534097436   1.531275456   4.593610772
Sb       1.526197520   4.587629936   1.528139972
Sb       4.591131748   1.533809681   1.528047746
Sb       4.590054395   4.584387401   1.522228143
Sb       1.537208828   4.590371897   4.591329057
Sb       4.580237871   1.532352225   4.586011211
Sb       4.593285054   4.586033327   4.594435325


     kinetic energy (Ekin) =     0.04724445 Ry
     temperature           =   452.07878955 K 
     Ekin + Etot (const)   =  -832.51974342 Ry
     Message from routine dynamics:
     Total linear momentum <> 0

     Linear momentum :    0.8893832890  -17.5462305547    6.1672304476

     Writing output data file x.save
     NEW-OLD atomic charge density approx. for the potential

     Check: negative/imaginary core charge=   -0.000002    0.000000

     total cpu time spent up to now is       66.0 secs

     per-process dynamical memory:    73.7 Mb

     Self-consistent Calculation

     iteration #  1     ecut=    50.00 Ry     beta=0.45
     Davidson diagonalization with overlap
     ethr =  1.00E-06,  avg # of iterations =  3.0

     Threshold (ethr) on eigenvalues was too large:
     Diagonalizing with lowered threshold

     Davidson diagonalization with overlap
     ethr =  2.11E-08,  avg # of iterations =  2.0

     total cpu time spent up to now is       68.3 secs

     total energy              =    -832.56697566 Ry
     Harris-Foulkes estimate   =    -832.56698603 Ry
     estimated scf accuracy    <       0.00001957 Ry

     iteration #  2     ecut=    50.00 Ry     beta=0.45
     Davidson diagonalization with overlap
     ethr =  2.13E-08,  avg # of iterations =  3.0

     total cpu time spent up to now is       69.4 secs

     End of self-consistent calculation

          k = 0.0000 0.0000 0.0000 (  9171 PWs)   bands (ev):

    -3.5678  -3.5678  -3.5648  -3.5648  -3.5633  -3.5633  -3.5300  -3.5300
    -3.5283  -3.5283  -3.5067  -3.5067  -3.5004  -3.5004  -3.4994  -3.4994
    -3.1860  -3.1860  -3.1309  -3.1309  -3.1276  -3.1276  -3.1266  -3.1266
    -3.1171  -3.1171  -3.0489  -3.0489  -3.0469  -3.0469  -3.0449  -3.0449
    -3.0419  -3.0419  -3.0400  -3.0400  -3.0317  -3.0317  -3.0276  -3.0276
    -3.0268  -3.0268   0.0044   0.0044   0.0048   0.0048   0.0052   0.0052
     2.2491   2.2491   2.2603   2.2603   2.2735   2.2735   3.5799   3.5799
     3.5802   3.5802   3.5803   3.5803   5.4907   5.4907   5.4933   5.4933
     5.4955   5.4955   5.8045   5.8045   5.8062   5.8062   5.8093   5.8093
     6.5423   6.5423   8.4328   8.4328   9.1577   9.1577   9.1582   9.1582
     9.9720   9.9720   9.9879   9.9879  10.0073  10.0073  10.7115  10.7115
    11.0904  11.0904  11.1087  11.1087  11.9630  11.9630  14.3087  14.3087
    14.8129  14.8129  14.8350  14.8350

     the Fermi energy is    11.4695 ev

!    total energy              =    -832.56697623 Ry
     Harris-Foulkes estimate   =    -832.56698319 Ry
     estimated scf accuracy    <       0.00000839 Ry

     convergence has been achieved in   2 iterations

     Forces acting on atoms (Ry/au):

     atom    1 type  1   force =     0.00331619   -0.00572445   -0.00188460
     atom    2 type  1   force =    -0.00448076    0.00577757    0.00022383
     atom    3 type  1   force =     0.00629419   -0.00689614   -0.00176602
     atom    4 type  1   force =    -0.00144399    0.00780486    0.00574692
     atom    5 type  2   force =     0.00293961   -0.00063887   -0.00036039
     atom    6 type  2   force =    -0.00405245    0.00017685   -0.00108017
     atom    7 type  2   force =     0.00027352    0.00091297   -0.00055814
     atom    8 type  2   force =    -0.00230398   -0.00434017    0.00368737
     atom    9 type  2   force =    -0.00119944    0.00438164    0.00725898
     atom   10 type  2   force =    -0.00298625   -0.00083511   -0.00053624
     atom   11 type  2   force =     0.00343891   -0.00192422   -0.00357826
     atom   12 type  2   force =     0.00020446    0.00130508   -0.00715328

     Total force =     0.022746     Total SCF correction =     0.009815
     SCF correction compared to forces is large: reduce conv_thr to get better values

     Entering Dynamics:    iteration =    14
                           time      =   0.0140 pico-seconds


     Andersen thermostat:   12 collisions

ATOMIC_POSITIONS (alat)
Ga      -0.008255293   0.008631728   0.003718419
Ga       3.064614773   3.053397169   0.004813891
Ga       3.051386411   0.006746574   3.053578512
Ga       0.000905467   3.049756635   3.052784128
Sb       1.524456297   1.527423369   1.530898138
Sb       1.536111338   1.531136378   4.596832473
Sb       1.525410917   4.587133649   1.528075210
Sb       4.592286902   1.535345237   1.526988794
Sb       4.590040064   4.583813230   1.522425164
Sb       1.536314307   4.586597310   4.591881022
Sb       4.580235058   1.532803535   4.584462085
Sb       4.592498396   4.587442594   4.592215149


     kinetic energy (Ekin) =     0.03212246 Ry
     temperature           =   307.37757421 K 
     Ekin + Etot (const)   =  -832.53485376 Ry
     Message from routine dynamics:
     Total linear momentum <> 0

     Linear momentum :   -3.4126003678    7.2041946447  -15.2695958847

     Writing output data file x.save
     NEW-OLD atomic charge density approx. for the potential

     Check: negative/imaginary core charge=   -0.000002    0.000000

     total cpu time spent up to now is       70.5 secs

     per-process dynamical memory:    74.2 Mb

     Self-consistent Calculation

     iteration #  1     ecut=    50.00 Ry     beta=0.45
     Davidson diagonalization with overlap
     ethr =  1.00E-06,  avg # of iterations =  3.0

     Threshold (ethr) on eigenvalues was too large:
     Diagonalizing with lowered threshold

     Davidson diagonalization with overlap
     ethr =  8.31E-08,  avg # of iterations =  1.0

     total cpu time spent up to now is       72.7 secs

     total energy              =    -832.56693534 Ry
     Harris-Foulkes estimate   =    -832.56698446 Ry
     estimated scf accuracy    <       0.00007778 Ry

     iteration #  2     ecut=    50.00 Ry     beta=0.45
     Davidson diagonalization with overlap
     ethr =  8.45E-08,  avg # of iterations =  3.0

     total cpu time spent up to now is       73.9 secs

     total energy              =    -832.56695603 Ry
     Harris-Foulkes estimate   =    -832.56698145 Ry
     estimated scf accuracy    <       0.00006658 Ry

     iteration #  3     ecut=    50.00 Ry     beta=0.45
     Davidson diagonalization with overlap
     ethr =  7.24E-08,  avg # of iterations =  2.0

     total cpu time spent up to now is       75.0 secs

     End of self-consistent calculation

          k = 0.0000 0.0000 0.0000 (  9171 PWs)   bands (ev):

    -3.5671  -3.5671  -3.5656  -3.5656  -3.5626  -3.5626  -3.5298  -3.5298
    -3.5278  -3.5278  -3.5051  -3.5051  -3.5026  -3.5026  -3.4995  -3.4995
    -3.1861  -3.1861  -3.1326  -3.1326  -3.1249  -3.1249  -3.1238  -3.1238
    -3.1204  -3.1204  -3.0489  -3.0489  -3.0480  -3.0480  -3.0416  -3.0416
    -3.0407  -3.0407  -3.0392  -3.0392  -3.0305  -3.0305  -3.0301  -3.0301
    -3.0291  -3.0291   0.0043   0.0043   0.0048   0.0048   0.0052   0.0052
     2.2461   2.2461   2.2625   2.2625   2.2741   2.2741   3.5799   3.5799
     3.5802   3.5802   3.5805   3.5805   5.4904   5.4904   5.4934   5.4934
     5.4957   5.4957   5.8042   5.8042   5.8062   5.8062   5.8095   5.8095
     6.5423   6.5423   8.4328   8.4328   9.1577   9.1577   9.1581   9.1581
     9.9701   9.9701   9.9865   9.9865  10.0105  10.0105  10.7113  10.7113
    11.0894  11.0894  11.1098  11.1098  11.9630  11.9630  14.3086  14.3086
    14.8115  14.8115  14.8366  14.8366

     the Fermi energy is    11.4709 ev

!    total energy              =    -832.56696718 Ry
     Harris-Foulkes estimate   =    -832.56696748 Ry
     estimated scf accuracy    <       0.00000068 Ry

     convergence has been achieved in   3 iterations

     Forces acting on atoms (Ry/au):

     atom    1 type  1   force =     0.00339240   -0.00403360   -0.00401906
     atom    2 type  1   force =    -0.00318300    0.00401719    0.00047837
     atom    3 type  1   force =     0.00562218   -0.00623800   -0.00054935
     atom    4 type  1   force =     0.00074413    0.00593272    0.00636178
     atom    5 type  2   force =     0.00284025   -0.00025963   -0.00010687
     atom    6 type  2   force =    -0.00518261   -0.00130434   -0.00205235
     atom    7 type  2   force =     0.00068079    0.00098479    0.00032361
     atom    8 type  2   force =    -0.00340276   -0.00488076    0.00290741
     atom    9 type  2   force =    -0.00205883    0.00478818    0.00699738
     atom   10 type  2   force =    -0.00323592    0.00149804   -0.00168878
     atom   11 type  2   force =     0.00356079   -0.00290163   -0.00240817
     atom   12 type  2   force =     0.00022258    0.00239703   -0.00624398

     Total force =     0.021614     Total SCF correction =     0.003227
     SCF correction compared to forces is large: reduce conv_thr to get better values

     Entering Dynamics:    iteration =    15
                           time      =   0.0150 pico-seconds


     Andersen thermostat:   12 collisions

ATOMIC_POSITIONS (alat)
Ga      -0.008356863   0.009385136   0.000057015
Ga       3.063027971   3.054176351   0.008809127
Ga       3.054312572   0.006120547   3.054197426
Ga       0.001188687   3.046379958   3.052266640
Sb       1.523997615   1.527258101   1.532589951
Sb       1.534952079   1.531943038   4.595285642
Sb       1.524728359   4.587137640   1.527448125
Sb       4.591456454   1.534423911   1.529913125
Sb       4.590481842   4.584955760   1.521690835
Sb       1.535085042   4.587020571   4.590888280
Sb       4.581687047   1.533375633   4.584211261
Sb       4.594093871   4.586995102   4.591501575


     kinetic energy (Ekin) =     0.02893258 Ry
     temperature           =   276.85380498 K 
     Ekin + Etot (const)   =  -832.53803460 Ry
     Message from routine dynamics:
     Total linear momentum <> 0

     Linear momentum :   -9.4076556202  -16.1597072942   20.2342871109

     Writing output data file x.save
     NEW-OLD atomic charge density approx. for the potential

     Check: negative/imaginary core charge=   -0.000002    0.000000

     total cpu time spent up to now is       76.1 secs

     per-process dynamical memory:    74.9 Mb

     Self-consistent Calculation

     iteration #  1     ecut=    50.00 Ry     beta=0.45
     Davidson diagonalization with overlap
     ethr =  1.00E-06,  avg # of iterations =  3.0

     Threshold (ethr) on eigenvalues was too large:
     Diagonalizing with lowered threshold

     Davidson diagonalization with overlap
     ethr =  5.27E-09,  avg # of iterations =  4.0

     total cpu time spent up to now is       78.6 secs

     End of self-consistent calculation

          k = 0.0000 0.0000 0.0000 (  9171 PWs)   bands (ev):

    -3.5663  -3.5663  -3.5645  -3.5645  -3.5635  -3.5635  -3.5297  -3.5297
    -3.5280  -3.5280  -3.5051  -3.5051  -3.5018  -3.5018  -3.5007  -3.5007
    -3.1859  -3.1859  -3.1293  -3.1293  -3.1268  -3.1268  -3.1248  -3.1248
    -3.1204  -3.1204  -3.0471  -3.0471  -3.0454  -3.0454  -3.0436  -3.0436
    -3.0413  -3.0413  -3.0399  -3.0399  -3.0311  -3.0311  -3.0301  -3.0301
    -3.0295  -3.0295   0.0046   0.0046   0.0048   0.0048   0.0052   0.0052
     2.2504   2.2504   2.2594   2.2594   2.2729   2.2729   3.5800   3.5800
     3.5803   3.5803   3.5806   3.5806   5.4906   5.4906   5.4936   5.4936
     5.4953   5.4953   5.8048   5.8048   5.8057   5.8057   5.8094   5.8094
     6.5423   6.5423   8.4328   8.4328   9.1577   9.1577   9.1581   9.1581
     9.9713   9.9713   9.9907   9.9907  10.0051  10.0051  10.7115  10.7115
    11.0901  11.0901  11.1091  11.1091  11.9630  11.9630  14.3087  14.3087
    14.8124  14.8124  14.8356  14.8356

     the Fermi energy is    11.4703 ev

!    total energy              =    -832.56702498 Ry
     Harris-Foulkes estimate   =    -832.56702768 Ry
     estimated scf accuracy    <       0.00000498 Ry

     convergence has been achieved in   1 iterations

     Forces acting on atoms (Ry/au):

     atom    1 type  1   force =     0.00395906   -0.00015021   -0.00401708
     atom    2 type  1   force =    -0.00396546    0.00093460   -0.00326713
     atom    3 type  1   force =     0.00267860   -0.00207246    0.00076701
     atom    4 type  1   force =     0.00141974    0.00556751    0.00794817
     atom    5 type  2   force =     0.00336018   -0.00194167   -0.00148008
     atom    6 type  2   force =    -0.00264829   -0.00174772   -0.00063992
     atom    7 type  2   force =     0.00063860    0.00151456    0.00079166
     atom    8 type  2   force =    -0.00307985   -0.00505628    0.00060900
     atom    9 type  2   force =    -0.00131994    0.00389574    0.00672136
     atom   10 type  2   force =    -0.00163977    0.00069907   -0.00143727
     atom   11 type  2   force =     0.00155609   -0.00254026   -0.00044738
     atom   12 type  2   force =    -0.00095896    0.00089712   -0.00554834

     Total force =     0.018514     Total SCF correction =     0.009484
     SCF correction compared to forces is large: reduce conv_thr to get better values

     Entering Dynamics:    iteration =    16
                           time      =   0.0160 pico-seconds


     Andersen thermostat:   12 collisions

ATOMIC_POSITIONS (alat)
Ga      -0.008820684   0.009523683  -0.000186039
Ga       3.063734489   3.053573416   0.009418608
Ga       3.055284623   0.007797492   3.054840311
Ga      -0.000204541   3.049442885   3.054518498
Sb       1.523756159   1.528567593   1.532103431
Sb       1.534313657   1.532582559   4.596823249
Sb       1.524005641   4.585968006   1.526783410
Sb       4.590470459   1.534304499   1.527436523
Sb       4.591513923   4.582446687   1.522520068
[...]
     ethr =  1.00E-06,  avg # of iterations =  3.0

     Threshold (ethr) on eigenvalues was too large:
     Diagonalizing with lowered threshold

     Davidson diagonalization with overlap
     ethr =  5.79E-09,  avg # of iterations =  4.0

     total cpu time spent up to now is      224.3 secs

     End of self-consistent calculation

          k = 0.0000 0.0000 0.0000 (  9171 PWs)   bands (ev):

    -3.5710  -3.5710  -3.5700  -3.5700  -3.5617  -3.5617  -3.5304  -3.5304
    -3.5275  -3.5275  -3.5063  -3.5063  -3.5042  -3.5042  -3.4969  -3.4969
    -3.1883  -3.1883  -3.1413  -3.1413  -3.1231  -3.1231  -3.1223  -3.1223
    -3.1196  -3.1196  -3.0554  -3.0554  -3.0548  -3.0548  -3.0402  -3.0402
    -3.0388  -3.0388  -3.0379  -3.0379  -3.0312  -3.0312  -3.0284  -3.0284
    -3.0274  -3.0274   0.0027   0.0027   0.0038   0.0038   0.0043   0.0043
     2.2242   2.2242   2.2751   2.2751   2.2812   2.2812   3.5792   3.5792
     3.5800   3.5800   3.5807   3.5807   5.4883   5.4883   5.4922   5.4922
     5.4992   5.4992   5.8007   5.8007   5.8082   5.8082   5.8115   5.8115
     6.5436   6.5436   8.4330   8.4330   9.1570   9.1570   9.1586   9.1586
     9.9545   9.9545   9.9665   9.9665  10.0434  10.0434  10.7110  10.7110
    11.0823  11.0823  11.1198  11.1198  11.9634  11.9634  14.3064  14.3064
    14.8020  14.8020  14.8449  14.8449

     the Fermi energy is    11.4770 ev

!    total energy              =    -832.56564994 Ry
     Harris-Foulkes estimate   =    -832.56565191 Ry
     estimated scf accuracy    <       0.00000510 Ry

     convergence has been achieved in   1 iterations

     Forces acting on atoms (Ry/au):

     atom    1 type  1   force =     0.00144785   -0.01646815   -0.00433909
     atom    2 type  1   force =     0.00368551    0.00408695    0.00330984
     atom    3 type  1   force =    -0.00338547   -0.00022434    0.00221432
     atom    4 type  1   force =     0.01384254   -0.00035057    0.00793190
     atom    5 type  2   force =    -0.00221661   -0.00444104    0.01012134
     atom    6 type  2   force =    -0.00396250   -0.00009112   -0.01493369
     atom    7 type  2   force =    -0.00379436    0.00619096    0.00571227
     atom    8 type  2   force =    -0.00030360   -0.00291376    0.00348800
     atom    9 type  2   force =     0.00029385    0.00415601   -0.00121498
     atom   10 type  2   force =    -0.01375850    0.00450297   -0.00664973
     atom   11 type  2   force =     0.00100094   -0.00709823   -0.00705451
     atom   12 type  2   force =     0.00715036    0.01265032    0.00141434

     Total force =     0.040783     Total SCF correction =     0.010232
     SCF correction compared to forces is large: reduce conv_thr to get better values

     Entering Dynamics:    iteration =    48
                           time      =   0.0480 pico-seconds


     Andersen thermostat:   12 collisions

ATOMIC_POSITIONS (alat)
Ga      -0.005579219   0.032649280  -0.000737123
Ga       3.056040181   3.045558974   0.003571343
Ga       3.070365399  -0.005687046   3.056097781
Ga      -0.017468233   3.054405594   3.041816506
Sb       1.539389565   1.532821668   1.532571265
Sb       1.525779900   1.530803112   4.601814757
Sb       1.521972962   4.584260725   1.517862587
Sb       4.586193361   1.535814614   1.530155151
Sb       4.584962363   4.594351573   1.522850994
Sb       1.548876217   4.588083785   4.596480176
Sb       4.578580086   1.534255492   4.592600610
Sb       4.594629870   4.566497307   4.587543121


     kinetic energy (Ekin) =     0.02600599 Ry
     temperature           =   248.84945144 K 
     Ekin + Etot (const)   =  -832.53964395 Ry
     Message from routine dynamics:
     Total linear momentum <> 0

     Linear momentum :    1.7293144271  -16.9239519839   -6.3893393018

     Writing output data file x.save
     NEW-OLD atomic charge density approx. for the potential

     Check: negative/imaginary core charge=   -0.000002    0.000000

     total cpu time spent up to now is      225.3 secs

     per-process dynamical memory:    73.8 Mb

     Self-consistent Calculation

     iteration #  1     ecut=    50.00 Ry     beta=0.45
     Davidson diagonalization with overlap
     ethr =  1.00E-06,  avg # of iterations =  3.0

     Threshold (ethr) on eigenvalues was too large:
     Diagonalizing with lowered threshold

     Davidson diagonalization with overlap
     ethr =  1.29E-08,  avg # of iterations =  3.0

     total cpu time spent up to now is      227.7 secs

     total energy              =    -832.56567907 Ry
     Harris-Foulkes estimate   =    -832.56568559 Ry
     estimated scf accuracy    <       0.00001204 Ry

     iteration #  2     ecut=    50.00 Ry     beta=0.45
     Davidson diagonalization with overlap
     ethr =  1.31E-08,  avg # of iterations =  3.0

     total cpu time spent up to now is      228.8 secs

     End of self-consistent calculation

          k = 0.0000 0.0000 0.0000 (  9171 PWs)   bands (ev):

    -3.5718  -3.5718  -3.5698  -3.5698  -3.5620  -3.5620  -3.5320  -3.5320
    -3.5268  -3.5268  -3.5078  -3.5078  -3.5020  -3.5020  -3.4962  -3.4962
    -3.1880  -3.1880  -3.1410  -3.1410  -3.1285  -3.1285  -3.1197  -3.1197
    -3.1177  -3.1177  -3.0556  -3.0556  -3.0550  -3.0550  -3.0447  -3.0447
    -3.0413  -3.0413  -3.0351  -3.0351  -3.0294  -3.0294  -3.0277  -3.0277
    -3.0254  -3.0254   0.0031   0.0031   0.0040   0.0040   0.0044   0.0044
     2.2269   2.2269   2.2735   2.2735   2.2802   2.2802   3.5790   3.5790
     3.5801   3.5801   3.5807   3.5807   5.4886   5.4886   5.4923   5.4923
     5.4988   5.4988   5.8011   5.8011   5.8081   5.8081   5.8112   5.8112
     6.5434   6.5434   8.4329   8.4329   9.1569   9.1569   9.1585   9.1585
     9.9568   9.9568   9.9687   9.9687  10.0387  10.0387  10.7114  10.7114
    11.0828  11.0828  11.1195  11.1195  11.9635  11.9635  14.3066  14.3066
    14.8031  14.8031  14.8438  14.8438

     the Fermi energy is    11.4759 ev

!    total energy              =    -832.56567779 Ry
     Harris-Foulkes estimate   =    -832.56568467 Ry
     estimated scf accuracy    <       0.00000790 Ry

     convergence has been achieved in   2 iterations

     Forces acting on atoms (Ry/au):

     atom    1 type  1   force =     0.00093309   -0.01558682   -0.00158167
     atom    2 type  1   force =     0.00214428    0.00582795    0.00160841
     atom    3 type  1   force =    -0.00622303    0.00120629    0.00351525
     atom    4 type  1   force =     0.01391338    0.00122050    0.00886965
     atom    5 type  2   force =    -0.00240147   -0.00554401    0.00962673
     atom    6 type  2   force =    -0.00274686    0.00017180   -0.01535125
     atom    7 type  2   force =    -0.00329269    0.00584015    0.00563383
     atom    8 type  2   force =     0.00065616   -0.00374022    0.00321723
     atom    9 type  2   force =     0.00101163    0.00380197   -0.00283203
     atom   10 type  2   force =    -0.01136990    0.00275864   -0.00761554
     atom   11 type  2   force =     0.00108612   -0.00630547   -0.00727757
     atom   12 type  2   force =     0.00628930    0.01034922    0.00218696

     Total force =     0.039387     Total SCF correction =     0.006305
     SCF correction compared to forces is large: reduce conv_thr to get better values

     Entering Dynamics:    iteration =    49
                           time      =   0.0490 pico-seconds


     Andersen thermostat:   12 collisions

ATOMIC_POSITIONS (alat)
Ga      -0.004604573   0.034891392   0.000072129
Ga       3.053140018   3.045096283   0.004829546
Ga       3.071165218  -0.003712365   3.057074627
Ga      -0.013884481   3.054306843   3.041096056
Sb       1.538845292   1.533280413   1.531731998
Sb       1.526581313   1.531389368   4.601202695
Sb       1.521692628   4.582147617   1.516578271
Sb       4.583706886   1.536644679   1.530774200
Sb       4.584551891   4.595291790   1.524365485
Sb       1.550243623   4.585719929   4.595871058
Sb       4.579151882   1.536315064   4.589729936
Sb       4.594203262   4.564006266   4.590294320


     kinetic energy (Ekin) =     0.03458049 Ry
     temperature           =   330.89823307 K 
     Ekin + Etot (const)   =  -832.53109730 Ry
     Message from routine dynamics:
     Total linear momentum <> 0

     Linear momentum :   -2.4593769592    0.8478417964    0.7656730429

     Writing output data file x.save
     NEW-OLD atomic charge density approx. for the potential

     Check: negative/imaginary core charge=   -0.000002    0.000000

     total cpu time spent up to now is      229.9 secs

     per-process dynamical memory:    74.2 Mb

     Self-consistent Calculation

     iteration #  1     ecut=    50.00 Ry     beta=0.45
     Davidson diagonalization with overlap
     ethr =  1.00E-06,  avg # of iterations =  3.0

     total cpu time spent up to now is      231.3 secs

     total energy              =    -832.56547710 Ry
     Harris-Foulkes estimate   =    -832.56553732 Ry
     estimated scf accuracy    <       0.00009499 Ry

     iteration #  2     ecut=    50.00 Ry     beta=0.45
     Davidson diagonalization with overlap
     ethr =  1.03E-07,  avg # of iterations =  3.0

     total cpu time spent up to now is      232.5 secs

     total energy              =    -832.56550502 Ry
     Harris-Foulkes estimate   =    -832.56553847 Ry
     estimated scf accuracy    <       0.00008986 Ry

     iteration #  3     ecut=    50.00 Ry     beta=0.45
     Davidson diagonalization with overlap
     ethr =  9.77E-08,  avg # of iterations =  2.0

     total cpu time spent up to now is      233.6 secs

     End of self-consistent calculation

          k = 0.0000 0.0000 0.0000 (  9171 PWs)   bands (ev):

    -3.5727  -3.5727  -3.5712  -3.5712  -3.5610  -3.5610  -3.5306  -3.5306
    -3.5272  -3.5272  -3.5067  -3.5067  -3.5035  -3.5035  -3.4960  -3.4960
    -3.1885  -3.1885  -3.1437  -3.1437  -3.1236  -3.1236  -3.1219  -3.1219
    -3.1180  -3.1180  -3.0577  -3.0577  -3.0569  -3.0569  -3.0403  -3.0403
    -3.0380  -3.0380  -3.0371  -3.0371  -3.0303  -3.0303  -3.0280  -3.0280
    -3.0260  -3.0260   0.0025   0.0025   0.0037   0.0037   0.0044   0.0044
     2.2225   2.2225   2.2749   2.2749   2.2829   2.2829   3.5790   3.5790
     3.5802   3.5802   3.5806   3.5806   5.4884   5.4884   5.4920   5.4920
     5.4993   5.4993   5.8007   5.8007   5.8081   5.8081   5.8117   5.8117
     6.5435   6.5435   8.4329   8.4329   9.1569   9.1569   9.1586   9.1586
     9.9529   9.9529   9.9659   9.9659  10.0448  10.0448  10.7111  10.7111
    11.0812  11.0812  11.1218  11.1218  11.9636  11.9636  14.3061  14.3061
    14.8003  14.8003  14.8468  14.8468

     the Fermi energy is    11.4782 ev

!    total energy              =    -832.56551973 Ry
     Harris-Foulkes estimate   =    -832.56551983 Ry
     estimated scf accuracy    <       0.00000057 Ry

     convergence has been achieved in   3 iterations

     Forces acting on atoms (Ry/au):

     atom    1 type  1   force =    -0.00042306   -0.01644051   -0.00233077
     atom    2 type  1   force =     0.00391448    0.00595533    0.00145753
     atom    3 type  1   force =    -0.00697386   -0.00060290    0.00324064
     atom    4 type  1   force =     0.01245865    0.00227076    0.00877432
     atom    5 type  2   force =    -0.00264671   -0.00756127    0.01000866
     atom    6 type  2   force =    -0.00308270   -0.00153894   -0.01485997
     atom    7 type  2   force =    -0.00314337    0.00835893    0.00584040
     atom    8 type  2   force =     0.00183271   -0.00405384    0.00204104
     atom    9 type  2   force =     0.00148431    0.00410081   -0.00307179
     atom   10 type  2   force =    -0.01215253    0.00517297   -0.00756100
     atom   11 type  2   force =     0.00160801   -0.00750095   -0.00558770
     atom   12 type  2   force =     0.00712408    0.01183959    0.00204864

     Total force =     0.041301     Total SCF correction =     0.002050

     Entering Dynamics:    iteration =    50
                           time      =   0.0500 pico-seconds


     Andersen thermostat:   12 collisions

ATOMIC_POSITIONS (alat)
Ga      -0.002315499   0.033261187  -0.002519394
Ga       3.053952048   3.044004247   0.003755818
Ga       3.073171590  -0.004052685   3.059910267
Ga      -0.013270533   3.057007195   3.041543029
Sb       1.537065660   1.532340264   1.529225928
Sb       1.526553294   1.532801104   4.601741653
Sb       1.519704732   4.582807041   1.519573493
Sb       4.584264303   1.535627717   1.530899794
Sb       4.583263271   4.594682102   1.523945970
Sb       1.550423368   4.587601287   4.596145605
Sb       4.578725350   1.536478279   4.591036448
Sb       4.595700560   4.562664742   4.588198180


     kinetic energy (Ekin) =     0.03082569 Ry
     temperature           =   294.96884644 K 
     Ekin + Etot (const)   =  -832.53469404 Ry
     Message from routine dynamics:
     Total linear momentum <> 0

     Linear momentum :   -2.8459292925    0.0199798409  -20.2309621876
     NEW-OLD atomic charge density approx. for the potential

     Check: negative/imaginary core charge=   -0.000002    0.000000

     total cpu time spent up to now is      234.5 secs

     per-process dynamical memory:    74.9 Mb

     Self-consistent Calculation

     iteration #  1     ecut=    50.00 Ry     beta=0.45
     Davidson diagonalization with overlap
     ethr =  1.00E-06,  avg # of iterations =  3.0

     Threshold (ethr) on eigenvalues was too large:
     Diagonalizing with lowered threshold

     Davidson diagonalization with overlap
     ethr =  4.19E-09,  avg # of iterations =  5.0

     total cpu time spent up to now is      237.1 secs

     End of self-consistent calculation

          k = 0.0000 0.0000 0.0000 (  9171 PWs)   bands (ev):

    -3.5721  -3.5721  -3.5708  -3.5708  -3.5615  -3.5615  -3.5310  -3.5310
    -3.5274  -3.5274  -3.5073  -3.5073  -3.5032  -3.5032  -3.4964  -3.4964
    -3.1883  -3.1883  -3.1427  -3.1427  -3.1243  -3.1243  -3.1228  -3.1228
    -3.1176  -3.1176  -3.0569  -3.0569  -3.0560  -3.0560  -3.0413  -3.0413
    -3.0386  -3.0386  -3.0377  -3.0377  -3.0303  -3.0303  -3.0286  -3.0286
    -3.0259  -3.0259   0.0022   0.0022   0.0037   0.0037   0.0047   0.0047
     2.2242   2.2242   2.2735   2.2735   2.2830   2.2830   3.5788   3.5788
     3.5802   3.5802   3.5805   3.5805   5.4883   5.4883   5.4924   5.4924
     5.4991   5.4991   5.8009   5.8009   5.8078   5.8078   5.8118   5.8118
     6.5435   6.5435   8.4329   8.4329   9.1569   9.1569   9.1587   9.1587
     9.9529   9.9529   9.9683   9.9683  10.0430  10.0430  10.7109  10.7109
    11.0817  11.0817  11.1208  11.1208  11.9635  11.9635  14.3062  14.3062
    14.8008  14.8008  14.8461  14.8461

     the Fermi energy is    11.4777 ev

!    total energy              =    -832.56554931 Ry
     Harris-Foulkes estimate   =    -832.56555041 Ry
     estimated scf accuracy    <       0.00000331 Ry

     convergence has been achieved in   1 iterations

     Forces acting on atoms (Ry/au):

     atom    1 type  1   force =    -0.00417254   -0.01767856   -0.00134625
     atom    2 type  1   force =     0.00245983    0.00870769    0.00142069
     atom    3 type  1   force =    -0.00893837   -0.00187840    0.00177608
     atom    4 type  1   force =     0.00907764    0.00217793    0.00891216
     atom    5 type  2   force =    -0.00056197   -0.00731153    0.01151439
     atom    6 type  2   force =    -0.00231255   -0.00127598   -0.01632134
     atom    7 type  2   force =    -0.00059719    0.00799980    0.00485592
     atom    8 type  2   force =     0.00274860   -0.00400946    0.00252463
     atom    9 type  2   force =     0.00192358    0.00454478   -0.00406140
     atom   10 type  2   force =    -0.01010502    0.00429222   -0.00673382
     atom   11 type  2   force =     0.00323261   -0.00767060   -0.00586727
     atom   12 type  2   force =     0.00724538    0.01210211    0.00332620

     Total force =     0.042035     Total SCF correction =     0.007540
     SCF correction compared to forces is large: reduce conv_thr to get better values

     The maximum number of steps has been reached.

     End of molecular dynamics calculation

     diffusion coefficients :
     atom     1   D =       0.00000037 cm^2/s
     atom     2   D =       0.00000009 cm^2/s
     atom     3   D =       0.00000007 cm^2/s
     atom     4   D =       0.00000016 cm^2/s
     atom     5   D =       0.00000002 cm^2/s
     atom     6   D =       0.00000006 cm^2/s
     atom     7   D =       0.00000008 cm^2/s
     atom     8   D =       0.00000002 cm^2/s
     atom     9   D =       0.00000003 cm^2/s
     atom    10   D =       0.00000017 cm^2/s
     atom    11   D =       0.00000005 cm^2/s
     atom    12   D =       0.00000024 cm^2/s

     < D > =       0.00000011 cm^2/s

     Entering Dynamics:    iteration =    51
                           time      =   0.0510 pico-seconds


     Andersen thermostat:   12 collisions

ATOMIC_POSITIONS (alat)
Ga      -0.002521071   0.031869203  -0.005997333
Ga       3.058213016   3.044206599   0.007267236
Ga       3.070689282  -0.003579812   3.060761102
Ga      -0.015453308   3.057813174   3.041746141
Sb       1.538740567   1.534424370   1.527857880
Sb       1.526583962   1.532678326   4.603577274
Sb       1.521692725   4.583320207   1.521217530
Sb       4.582404616   1.533177547   1.530725438
Sb       4.583175324   4.595462926   1.526055783
Sb       1.550149276   4.586000481   4.593303546
Sb       4.578772112   1.535642570   4.591236987
Sb       4.594531080   4.564245019   4.586169946


     kinetic energy (Ekin) =     0.04020133 Ry
     temperature           =   384.68365803 K 
     Ekin + Etot (const)   =  -832.52534798 Ry
     Message from routine dynamics:
     Total linear momentum <> 0

     Linear momentum :  -12.6281597445    0.1466763033   -5.9180127994

     Writing output data file x.save
 
     init_run     :      0.82s CPU      0.88s WALL (       1 calls)
     electrons    :    172.73s CPU    184.62s WALL (      51 calls)
     update_pot   :      3.93s CPU      5.25s WALL (      50 calls)
     forces       :     21.53s CPU     22.89s WALL (      51 calls)

     Called by init_run:
     wfcinit      :      0.30s CPU      0.31s WALL (       1 calls)
     potinit      :      0.04s CPU      0.04s WALL (       1 calls)

     Called by electrons:
     c_bands      :    110.81s CPU    112.42s WALL (     155 calls)
     sum_band     :     31.40s CPU     35.80s WALL (     155 calls)
     v_of_rho     :      1.26s CPU      1.28s WALL (     156 calls)
     newd         :     40.78s CPU     44.63s WALL (     156 calls)
     mix_rho      :      0.27s CPU      0.27s WALL (     155 calls)

     Called by c_bands:
     init_us_2    :      0.50s CPU      0.50s WALL (     311 calls)
     cegterg      :     95.06s CPU     96.57s WALL (     155 calls)

     Called by sum_band:
     sum_band:bec :      2.28s CPU      2.28s WALL (     155 calls)
     addusdens    :     19.07s CPU     23.37s WALL (     155 calls)

     Called by *egterg:
     h_psi        :     54.71s CPU     55.26s WALL (     626 calls)
     s_psi        :     10.75s CPU     10.76s WALL (     626 calls)
     g_psi        :      0.37s CPU      0.37s WALL (     470 calls)
     cdiaghg      :     12.63s CPU     12.65s WALL (     525 calls)

     Called by h_psi:
     add_vuspsi   :     10.32s CPU     10.41s WALL (     626 calls)

     General routines
     calbec       :     13.49s CPU     13.55s WALL (     985 calls)
     fft          :      1.60s CPU      1.62s WALL (    3521 calls)
     fftw         :     40.23s CPU     39.94s WALL (  208800 calls)
     davcio       :      0.01s CPU      0.13s WALL (      50 calls)
 
     Parallel routines
     fft_scatter  :     14.76s CPU     14.10s WALL (  212321 calls)
 
     PWSCF        :  3m34.71s CPU     3m58.04s WALL

 
   This run was terminated on:  13:19:57   4Nov2016            

=------------------------------------------------------------------------------=
   JOB DONE.
=------------------------------------------------------------------------------=
