
     Program PWSCF v.5.2.0 starts on  4Nov2016 at 15:22:34 

     This program is part of the open-source Quantum ESPRESSO suite
     for quantum simulation of materials; please cite
         "P. Giannozzi et al., J. Phys.:Condens. Matter 21 395502 (2009);
          URL http://www.quantum-espresso.org", 
     in publications or presentations arising from this work. More details at
     http://www.quantum-espresso.org/quote

     Parallel version (MPI), running on    12 processors
     R & G space division:  proc/nbgrp/npool/nimage =      12
     Waiting for input...
     Reading input from standard input
     Message from routine read_cards :
     DEPRECATED: no units specified in CELL_PARAMETERS card

     Current dimensions of program PWSCF are:
     Max number of different atomic species (ntypx) = 10
     Max number of k-points (npk) =  40000
     Max angular momentum in pseudopotentials (lmaxx) =  3
               file Ga.rel-revpbe-dn-rrkjus_psl.0.2.UPF: wavefunction(s)  4S 3D 3D renormalized
               file Sb.rel-revpbe-n-rrkjus_psl.0.3.1.UPF: wavefunction(s)  5S 5P 5P renormalized

     Subspace diagonalization in iterative solution of the eigenvalue problem:
     a serial algorithm will be used

     Found symmetry operation: I + (  0.5000  0.5000  0.0000)
     This is a supercell, fractional translations are disabled
 
     Parallelization info
     --------------------
     sticks:   dense  smooth     PW     G-vecs:    dense   smooth      PW
     Min         177     177     49                 6157     6157     921
     Max         179     179     50                 6158     6158     926
     Sum        2129    2129    593                73885    73885   11075
 


     bravais-lattice index     =            0
     lattice parameter (alat)  =       1.8900  a.u.
     unit-cell volume          =    1546.0155 (a.u.)^3
     number of atoms/cell      =           12
     number of atomic types    =            2
     number of electrons       =        92.00
     number of Kohn-Sham states=          100
     kinetic-energy cutoff     =      50.0000  Ry
     charge density cutoff     =     200.0000  Ry
     convergence threshold     =      1.0E-05
     mixing beta               =       0.4500
     number of iterations used =            8  plain     mixing
     Exchange-correlation      = REVPBE ( 1  4  4  4 0 0)
     nstep                     =           50

     Non magnetic calculation with spin-orbit


     celldm(1)=   1.890000  celldm(2)=   0.000000  celldm(3)=   0.000000
     celldm(4)=   0.000000  celldm(5)=   0.000000  celldm(6)=   0.000000

     crystal axes: (cart. coord. in units of alat)
               a(1) = (   6.118000   0.000000   0.000000 )  
               a(2) = (   0.000000   6.118000   0.000000 )  
               a(3) = (   0.000000   0.000000   6.118000 )  

     reciprocal axes: (cart. coord. in units 2 pi/alat)
               b(1) = (  0.163452  0.000000  0.000000 )  
               b(2) = (  0.000000  0.163452  0.000000 )  
               b(3) = (  0.000000  0.000000  0.163452 )  


     PseudoPot. # 1 for Ga read from file:
     ./Ga.rel-revpbe-dn-rrkjus_psl.0.2.UPF
     MD5 check sum: db2b2e76a47933ecf454094ea25aaeba
     Pseudo is Ultrasoft + core correction, Zval = 13.0
     Generated using "atomic" code by A. Dal Corso  v.5.0.99 svn rev. 10869
     Using radial grid of 1205 points, 10 beta functions with: 
                l(1) =   0
                l(2) =   0
                l(3) =   1
                l(4) =   1
                l(5) =   1
                l(6) =   1
                l(7) =   2
                l(8) =   2
                l(9) =   2
               l(10) =   2
     Q(r) pseudized with 0 coefficients 


     PseudoPot. # 2 for Sb read from file:
     ./Sb.rel-revpbe-n-rrkjus_psl.0.3.1.UPF
     MD5 check sum: 15ec63454f17e97aa817e227f21fc451
     Pseudo is Ultrasoft + core correction, Zval =  5.0
     Generated using "atomic" code by A. Dal Corso  v.5.0.2 svn rev. 10551
     Using radial grid of 1243 points, 10 beta functions with: 
                l(1) =   0
                l(2) =   0
                l(3) =   1
                l(4) =   1
                l(5) =   1
                l(6) =   1
                l(7) =   2
                l(8) =   2
                l(9) =   2
               l(10) =   2
     Q(r) pseudized with 0 coefficients 


     atomic species   valence    mass     pseudopotential
        Ga            13.00    69.72300     Ga( 1.00)
        Sb             5.00   121.76000     Sb( 1.00)

     No symmetry found



   Cartesian axes

     site n.     atom                  positions (alat units)
         1           Ga  tau(   1) = (   0.0000000   0.0000000   0.0000000  )
         2           Ga  tau(   2) = (   3.0590000   3.0590000   0.0000000  )
         3           Ga  tau(   3) = (   3.0590000   0.0000000   3.0590000  )
         4           Ga  tau(   4) = (   0.0000000   3.0590000   3.0590000  )
         5           Sb  tau(   5) = (   1.5295000   1.5295000   1.5295000  )
         6           Sb  tau(   6) = (   1.5295000   1.5295000   4.5885000  )
         7           Sb  tau(   7) = (   1.5295000   4.5885000   1.5295000  )
         8           Sb  tau(   8) = (   4.5885000   1.5295000   1.5295000  )
         9           Sb  tau(   9) = (   4.5885000   4.5885000   1.5295000  )
        10           Sb  tau(  10) = (   1.5295000   4.5885000   4.5885000  )
        11           Sb  tau(  11) = (   4.5885000   1.5295000   4.5885000  )
        12           Sb  tau(  12) = (   4.5885000   4.5885000   4.5885000  )

     number of k points=    36  gaussian smearing, width (Ry)=  0.0050
                       cart. coord. in units 2pi/alat
        k(    1) = (   0.0000000   0.0000000   0.0000000), wk =   0.0156250
        k(    2) = (   0.0000000   0.0000000   0.0408630), wk =   0.0312500
        k(    3) = (   0.0000000   0.0000000  -0.0817261), wk =   0.0156250
        k(    4) = (   0.0000000   0.0408630   0.0000000), wk =   0.0312500
        k(    5) = (   0.0000000   0.0408630   0.0408630), wk =   0.0312500
        k(    6) = (   0.0000000   0.0408630  -0.0817261), wk =   0.0312500
        k(    7) = (   0.0000000   0.0408630  -0.0408630), wk =   0.0312500
        k(    8) = (   0.0000000  -0.0817261   0.0000000), wk =   0.0156250
        k(    9) = (   0.0000000  -0.0817261   0.0408630), wk =   0.0312500
        k(   10) = (   0.0000000  -0.0817261  -0.0817261), wk =   0.0156250
        k(   11) = (   0.0408630   0.0000000   0.0000000), wk =   0.0312500
        k(   12) = (   0.0408630   0.0000000   0.0408630), wk =   0.0312500
        k(   13) = (   0.0408630   0.0000000  -0.0817261), wk =   0.0312500
        k(   14) = (   0.0408630   0.0000000  -0.0408630), wk =   0.0312500
        k(   15) = (   0.0408630   0.0408630   0.0000000), wk =   0.0312500
        k(   16) = (   0.0408630   0.0408630   0.0408630), wk =   0.0312500
        k(   17) = (   0.0408630   0.0408630  -0.0817261), wk =   0.0312500
        k(   18) = (   0.0408630   0.0408630  -0.0408630), wk =   0.0312500
        k(   19) = (   0.0408630  -0.0817261   0.0000000), wk =   0.0312500
        k(   20) = (   0.0408630  -0.0817261   0.0408630), wk =   0.0312500
        k(   21) = (   0.0408630  -0.0817261  -0.0817261), wk =   0.0312500
        k(   22) = (   0.0408630  -0.0817261  -0.0408630), wk =   0.0312500
        k(   23) = (   0.0408630  -0.0408630   0.0000000), wk =   0.0312500
        k(   24) = (   0.0408630  -0.0408630   0.0408630), wk =   0.0312500
        k(   25) = (   0.0408630  -0.0408630  -0.0817261), wk =   0.0312500
        k(   26) = (   0.0408630  -0.0408630  -0.0408630), wk =   0.0312500
        k(   27) = (  -0.0817261   0.0000000   0.0000000), wk =   0.0156250
        k(   28) = (  -0.0817261   0.0000000   0.0408630), wk =   0.0312500
        k(   29) = (  -0.0817261   0.0000000  -0.0817261), wk =   0.0156250
        k(   30) = (  -0.0817261   0.0408630   0.0000000), wk =   0.0312500
        k(   31) = (  -0.0817261   0.0408630   0.0408630), wk =   0.0312500
        k(   32) = (  -0.0817261   0.0408630  -0.0817261), wk =   0.0312500
        k(   33) = (  -0.0817261   0.0408630  -0.0408630), wk =   0.0312500
        k(   34) = (  -0.0817261  -0.0817261   0.0000000), wk =   0.0156250
        k(   35) = (  -0.0817261  -0.0817261   0.0408630), wk =   0.0312500
        k(   36) = (  -0.0817261  -0.0817261  -0.0817261), wk =   0.0156250

     Dense  grid:    73885 G-vectors     FFT dimensions: (  54,  54,  54)

     Largest allocated arrays     est. size (Mb)     dimensions
        Kohn-Sham Wavefunctions         2.39 Mb     (    1568,  100)
        NL pseudopotentials             4.88 Mb     (     784,  408)
        Each V/rho on FFT grid          0.22 Mb     (   14580)
        Each G-vector array             0.05 Mb     (    6158)
        G-vector shells                 0.00 Mb     (     551)
     Largest temporary arrays     est. size (Mb)     dimensions
        Auxiliary wavefunctions         9.57 Mb     (    1568,  400)
        Each subspace H/S matrix        2.44 Mb     (     400,  400)
        Each <psi_i|beta_j> matrix      1.25 Mb     (     408,   2,  100)
        Arrays for rho mixing           1.78 Mb     (   14580,    8)

     Check: negative/imaginary core charge=   -0.000002    0.000000

     Initial potential from superposition of free atoms

     starting charge   91.98209, renormalised to   92.00000
     Starting wfc are  136 randomized atomic wfcs

     total cpu time spent up to now is       11.2 secs

     per-process dynamical memory:   149.4 Mb

     Self-consistent Calculation

     iteration #  1     ecut=    50.00 Ry     beta=0.45
     Davidson diagonalization with overlap
     ethr =  1.00E-02,  avg # of iterations =  3.0

     Threshold (ethr) on eigenvalues was too large:
     Diagonalizing with lowered threshold

     Davidson diagonalization with overlap
     ethr =  9.97E-05,  avg # of iterations =  5.3

     total cpu time spent up to now is       76.6 secs

     total energy              =    -831.57567440 Ry
     Harris-Foulkes estimate   =    -831.60211884 Ry
     estimated scf accuracy    <       0.09103422 Ry

     iteration #  2     ecut=    50.00 Ry     beta=0.45
     Davidson diagonalization with overlap
     ethr =  9.90E-05,  avg # of iterations =  1.0

     total cpu time spent up to now is       97.5 secs

     total energy              =    -831.57408483 Ry
     Harris-Foulkes estimate   =    -831.57932787 Ry
     estimated scf accuracy    <       0.01845552 Ry

     iteration #  3     ecut=    50.00 Ry     beta=0.45
     Davidson diagonalization with overlap
     ethr =  2.01E-05,  avg # of iterations =  3.8

     total cpu time spent up to now is      125.9 secs

     total energy              =    -831.57632854 Ry
     Harris-Foulkes estimate   =    -831.57682015 Ry
     estimated scf accuracy    <       0.00123137 Ry

     iteration #  4     ecut=    50.00 Ry     beta=0.45
     Davidson diagonalization with overlap
     ethr =  1.34E-06,  avg # of iterations =  3.7

     total cpu time spent up to now is      155.1 secs

     total energy              =    -831.57650623 Ry
     Harris-Foulkes estimate   =    -831.57654244 Ry
     estimated scf accuracy    <       0.00019268 Ry

     iteration #  5     ecut=    50.00 Ry     beta=0.45
     Davidson diagonalization with overlap
     ethr =  2.09E-07,  avg # of iterations =  3.4

     total cpu time spent up to now is      181.4 secs

     total energy              =    -831.57653001 Ry
     Harris-Foulkes estimate   =    -831.57653307 Ry
     estimated scf accuracy    <       0.00004209 Ry

     iteration #  6     ecut=    50.00 Ry     beta=0.45
     Davidson diagonalization with overlap
     ethr =  4.58E-08,  avg # of iterations =  1.9

     total cpu time spent up to now is      203.4 secs

     total energy              =    -831.57651066 Ry
     Harris-Foulkes estimate   =    -831.57653138 Ry
     estimated scf accuracy    <       0.00003665 Ry

     iteration #  7     ecut=    50.00 Ry     beta=0.45
     Davidson diagonalization with overlap
     ethr =  3.98E-08,  avg # of iterations =  3.2

     total cpu time spent up to now is      232.2 secs

     End of self-consistent calculation

          k = 0.0000 0.0000 0.0000 (  9171 PWs)   bands (ev):

    -3.7564  -3.7564  -3.7558  -3.7558  -3.7554  -3.7554  -3.7249  -3.7249
    -3.7246  -3.7246  -3.7005  -3.7005  -3.6999  -3.6999  -3.6995  -3.6995
    -3.3208  -3.3208  -3.3178  -3.3178  -3.3173  -3.3173  -3.3164  -3.3164
    -3.2425  -3.2425  -3.2423  -3.2423  -3.2416  -3.2416  -3.2390  -3.2390
    -3.2387  -3.2387  -3.2296  -3.2296  -3.2292  -3.2292  -3.2291  -3.2291
    -3.1023  -3.1023   0.1401   0.1401   0.1409   0.1409   0.1416   0.1416
     2.2406   2.2406   2.2411   2.2411   2.2418   2.2418   3.7543   3.7543
     3.7551   3.7551   3.7558   3.7558   5.5536   5.5536   5.5542   5.5542
     5.5548   5.5548   5.8589   5.8589   5.8594   5.8594   5.8600   5.8600
     6.7741   6.7741   8.5509   8.5509   9.2688   9.2688   9.2690   9.2690
     9.9834   9.9834   9.9843   9.9843   9.9852   9.9852  10.7044  10.7044
    11.0764  11.0764  11.0785  11.0785  11.8877  11.8877  14.3831  14.3832
    14.8989  14.8989  14.9015  14.9016

          k = 0.0000 0.0000 0.0409 (  9230 PWs)   bands (ev):

    -3.7507  -3.7507  -3.7502  -3.7502  -3.7495  -3.7495  -3.7283  -3.7283
    -3.7210  -3.7210  -3.7065  -3.7065  -3.7055  -3.7055  -3.7035  -3.7035
    -3.3195  -3.3195  -3.3185  -3.3185  -3.3174  -3.3174  -3.3164  -3.3164
    -3.2449  -3.2449  -3.2445  -3.2445  -3.2423  -3.2423  -3.2399  -3.2399
    -3.2394  -3.2394  -3.2350  -3.2350  -3.2345  -3.2345  -3.2329  -3.2329
    -2.8487  -2.8487  -0.8925  -0.8925   0.4287   0.4287   0.4288   0.4288
     2.3468   2.3468   2.3470   2.3470   2.5792   2.5792   2.5793   2.5793
     3.7441   3.7441   3.9815   3.9815   5.2517   5.2517   5.2517   5.2517
     5.7916   5.7916   5.8353   5.8353   6.1421   6.1421   7.4176   7.4176
     7.4177   7.4177   7.8415   7.8415   8.2085   8.2085   8.9468   8.9468
    10.2626  10.2626  10.5969  10.5969  11.0118  11.0118  11.0118  11.0118
    11.9261  11.9261  12.1809  12.1809  12.6587  12.6587  13.5642  13.5642
    13.5643  13.5643  14.0214  14.0215

          k = 0.0000 0.0000-0.0817 (  9242 PWs)   bands (ev):

    -3.7424  -3.7424  -3.7408  -3.7408  -3.7391  -3.7391  -3.7375  -3.7375
    -3.7156  -3.7156  -3.7139  -3.7139  -3.7129  -3.7129  -3.7113  -3.7113
    -3.3198  -3.3198  -3.3183  -3.3183  -3.3177  -3.3177  -3.3160  -3.3160
    -3.2499  -3.2499  -3.2483  -3.2483  -3.2421  -3.2421  -3.2404  -3.2404
    -3.2397  -3.2397  -3.2384  -3.2384  -3.2382  -3.2382  -3.2366  -3.2366
    -2.0940  -2.0940  -2.0938  -2.0938   1.2617   1.2617   1.2618   1.2618
     1.2690   1.2690   1.2690   1.2690   2.4752   2.4752   2.4754   2.4754
     4.6674   4.6674   4.6675   4.6675   4.8593   4.8593   4.8594   4.8594
     6.2758   6.2758   6.2759   6.2759   6.6450   6.6450   6.6452   6.6452
     6.9629   6.9629   6.9631   6.9631  10.2717  10.2717  10.2717  10.2717
    10.2813  10.2813  10.2813  10.2813  11.1346  11.1346  11.1348  11.1348
    12.8487  12.8487  12.8488  12.8488  13.3256  13.3256  13.3256  13.3257
    13.4557  13.4557  13.4558  13.4558

          k = 0.0000 0.0409 0.0000 (  9230 PWs)   bands (ev):

    -3.7507  -3.7507  -3.7500  -3.7500  -3.7498  -3.7498  -3.7283  -3.7283
    -3.7209  -3.7209  -3.7061  -3.7061  -3.7059  -3.7059  -3.7035  -3.7035
    -3.3196  -3.3196  -3.3181  -3.3181  -3.3178  -3.3178  -3.3164  -3.3164
    -3.2448  -3.2448  -3.2448  -3.2448  -3.2419  -3.2419  -3.2399  -3.2399
    -3.2395  -3.2395  -3.2349  -3.2349  -3.2347  -3.2347  -3.2328  -3.2328
    -2.8487  -2.8487  -0.8925  -0.8925   0.4287   0.4287   0.4288   0.4288
     2.3466   2.3466   2.3472   2.3472   2.5792   2.5792   2.5793   2.5793
     3.7441   3.7441   3.9815   3.9815   5.2512   5.2512   5.2522   5.2522
     5.7916   5.7916   5.8353   5.8353   6.1421   6.1421   7.4176   7.4176
     7.4177   7.4177   7.8415   7.8415   8.2085   8.2085   8.9468   8.9468
    10.2626  10.2626  10.5969  10.5969  11.0113  11.0113  11.0122  11.0122
    11.9261  11.9261  12.1809  12.1809  12.6587  12.6587  13.5642  13.5642
    13.5643  13.5643  14.0214  14.0214

          k = 0.0000 0.0409 0.0409 (  9214 PWs)   bands (ev):

    -3.7464  -3.7464  -3.7459  -3.7459  -3.7454  -3.7454  -3.7289  -3.7289
    -3.7225  -3.7225  -3.7112  -3.7112  -3.7095  -3.7095  -3.7092  -3.7092
    -3.3207  -3.3207  -3.3188  -3.3188  -3.3181  -3.3181  -3.3171  -3.3171
    -3.2499  -3.2499  -3.2470  -3.2470  -3.2463  -3.2463  -3.2457  -3.2457
    -3.2366  -3.2366  -3.2359  -3.2359  -3.2351  -3.2351  -3.2347  -3.2347
    -2.5874  -2.5874  -0.6208  -0.6208  -0.6200  -0.6200   0.7102   0.7102
     1.3464   1.3464   2.8286   2.8286   2.8293   2.8293   2.9174   2.9174
     3.7284   3.7284   3.7286   3.7286   4.7682   4.7682   5.6797   5.6797
     5.6805   5.6805   6.2551   6.2551   6.8830   6.8830   7.1367   7.1367
     7.6764   7.6764   7.6772   7.6772   9.3921   9.3921   9.7544   9.7544
     9.9342   9.9342  10.1134  10.1134  11.2458  11.2458  11.2467  11.2467
    12.1429  12.1429  12.6911  12.6911  12.6916  12.6916  12.9649  12.9649
    13.4191  13.4191  13.5953  13.5953

          k = 0.0000 0.0409-0.0817 (  9246 PWs)   bands (ev):

    -3.7402  -3.7402  -3.7387  -3.7387  -3.7374  -3.7374  -3.7359  -3.7359
    -3.7188  -3.7188  -3.7180  -3.7180  -3.7171  -3.7171  -3.7164  -3.7164
    -3.3203  -3.3203  -3.3196  -3.3196  -3.3189  -3.3189  -3.3177  -3.3177
    -3.2538  -3.2538  -3.2532  -3.2532  -3.2493  -3.2493  -3.2489  -3.2489
    -3.2365  -3.2365  -3.2361  -3.2361  -3.2354  -3.2354  -3.2349  -3.2349
    -1.8254  -1.8254  -1.8252  -1.8252   0.1619   0.1619   0.1621   0.1621
     1.5331   1.5331   1.5332   1.5332   3.4031   3.4031   3.4033   3.4033
     3.5755   3.5755   3.5756   3.5756   5.4686   5.4686   5.4687   5.4687
     5.7738   5.7738   5.7738   5.7738   7.3365   7.3365   7.3366   7.3366
     8.4340   8.4340   8.4342   8.4342   9.4600   9.4600   9.4600   9.4600
    10.5250  10.5250  10.5250  10.5250  11.1817  11.1817  11.1818  11.1818
    12.2094  12.2094  12.2096  12.2096  12.3643  12.3643  12.3643  12.3643
    13.4079  13.4079  13.4080  13.4080

          k = 0.0000 0.0409-0.0409 (  9214 PWs)   bands (ev):

    -3.7464  -3.7464  -3.7459  -3.7459  -3.7454  -3.7454  -3.7289  -3.7289
    -3.7225  -3.7225  -3.7112  -3.7112  -3.7095  -3.7095  -3.7092  -3.7092
    -3.3207  -3.3207  -3.3188  -3.3188  -3.3181  -3.3181  -3.3171  -3.3171
    -3.2499  -3.2499  -3.2470  -3.2470  -3.2463  -3.2463  -3.2457  -3.2457
    -3.2366  -3.2366  -3.2359  -3.2359  -3.2351  -3.2351  -3.2347  -3.2347
    -2.5874  -2.5874  -0.6211  -0.6211  -0.6197  -0.6197   0.7102   0.7102
     1.3464   1.3464   2.8282   2.8282   2.8297   2.8297   2.9175   2.9175
     3.7279   3.7279   3.7291   3.7291   4.7682   4.7682   5.6794   5.6794
     5.6808   5.6808   6.2551   6.2551   6.8831   6.8831   7.1367   7.1367
     7.6761   7.6761   7.6776   7.6776   9.3921   9.3921   9.7544   9.7544
     9.9342   9.9342  10.1133  10.1134  11.2455  11.2455  11.2470  11.2470
    12.1429  12.1429  12.6908  12.6908  12.6919  12.6919  12.9649  12.9649
    13.4191  13.4191  13.5953  13.5953

          k = 0.0000-0.0817 0.0000 (  9242 PWs)   bands (ev):

    -3.7417  -3.7417  -3.7415  -3.7415  -3.7384  -3.7384  -3.7383  -3.7383
    -3.7148  -3.7148  -3.7146  -3.7146  -3.7123  -3.7123  -3.7119  -3.7119
    -3.3194  -3.3194  -3.3191  -3.3191  -3.3170  -3.3170  -3.3163  -3.3163
    -3.2492  -3.2492  -3.2491  -3.2491  -3.2414  -3.2414  -3.2409  -3.2409
    -3.2395  -3.2395  -3.2389  -3.2389  -3.2378  -3.2378  -3.2368  -3.2368
    -2.0939  -2.0939  -2.0939  -2.0939   1.2623   1.2623   1.2625   1.2625
     1.2683   1.2683   1.2684   1.2684   2.4751   2.4751   2.4756   2.4756
     4.6674   4.6674   4.6675   4.6675   4.8588   4.8588   4.8599   4.8599
     6.2758   6.2758   6.2759   6.2759   6.6451   6.6451   6.6451   6.6451
     6.9630   6.9630   6.9630   6.9630  10.2717  10.2717  10.2718  10.2718
    10.2813  10.2813  10.2813  10.2813  11.1346  11.1346  11.1347  11.1347
    12.8483  12.8484  12.8491  12.8491  13.3256  13.3256  13.3257  13.3257
    13.4555  13.4555  13.4559  13.4560

          k = 0.0000-0.0817 0.0409 (  9246 PWs)   bands (ev):

    -3.7396  -3.7396  -3.7394  -3.7394  -3.7367  -3.7367  -3.7367  -3.7367
    -3.7181  -3.7181  -3.7179  -3.7179  -3.7173  -3.7173  -3.7169  -3.7169
    -3.3203  -3.3203  -3.3195  -3.3195  -3.3190  -3.3190  -3.3178  -3.3178
    -3.2535  -3.2535  -3.2535  -3.2535  -3.2492  -3.2492  -3.2489  -3.2489
    -3.2365  -3.2365  -3.2361  -3.2361  -3.2354  -3.2354  -3.2350  -3.2350
    -1.8253  -1.8253  -1.8253  -1.8253   0.1620   0.1620   0.1620   0.1620
     1.5331   1.5331   1.5332   1.5332   3.4031   3.4031   3.4033   3.4033
     3.5755   3.5755   3.5756   3.5756   5.4686   5.4686   5.4687   5.4687
     5.7734   5.7734   5.7742   5.7742   7.3365   7.3365   7.3366   7.3366
     8.4340   8.4340   8.4341   8.4341   9.4600   9.4600   9.4600   9.4600
    10.5250  10.5250  10.5250  10.5250  11.1816  11.1816  11.1820  11.1820
    12.2094  12.2094  12.2096  12.2096  12.3643  12.3643  12.3644  12.3644
    13.4078  13.4078  13.4081  13.4081

          k = 0.0000-0.0817-0.0817 (  9220 PWs)   bands (ev):

    -3.7359  -3.7359  -3.7355  -3.7355  -3.7350  -3.7350  -3.7343  -3.7343
    -3.7235  -3.7235  -3.7230  -3.7230  -3.7224  -3.7224  -3.7218  -3.7218
    -3.3213  -3.3213  -3.3204  -3.3204  -3.3199  -3.3199  -3.3186  -3.3186
    -3.2565  -3.2565  -3.2563  -3.2563  -3.2556  -3.2556  -3.2552  -3.2552
    -3.2350  -3.2350  -3.2348  -3.2348  -3.2339  -3.2339  -3.2336  -3.2336
    -1.0504  -1.0504  -1.0501  -1.0501  -1.0495  -1.0495  -1.0491  -1.0491
     2.3223   2.3223   2.3227   2.3227   2.3233   2.3233   2.3238   2.3238
     4.3961   4.3961   4.3965   4.3965   4.3970   4.3970   4.3974   4.3974
     7.8405   7.8405   7.8411   7.8411   7.8413   7.8413   7.8420   7.8420
     8.6294   8.6294   8.6299   8.6299   8.6300   8.6300   8.6305   8.6305
    11.0821  11.0821  11.0823  11.0823  11.0825  11.0825  11.0827  11.0827
    11.4196  11.4196  11.4197  11.4197  11.4201  11.4201  11.4202  11.4202
    13.8900  13.8902  13.8906  13.8910

          k = 0.0409 0.0000 0.0000 (  9230 PWs)   bands (ev):

    -3.7507  -3.7507  -3.7501  -3.7501  -3.7496  -3.7496  -3.7283  -3.7283
    -3.7210  -3.7210  -3.7063  -3.7063  -3.7057  -3.7057  -3.7035  -3.7035
    -3.3196  -3.3196  -3.3183  -3.3183  -3.3176  -3.3176  -3.3164  -3.3164
    -3.2450  -3.2450  -3.2446  -3.2446  -3.2421  -3.2421  -3.2399  -3.2399
    -3.2394  -3.2394  -3.2349  -3.2349  -3.2346  -3.2346  -3.2329  -3.2329
    -2.8487  -2.8487  -0.8925  -0.8925   0.4280   0.4280   0.4295   0.4295
     2.3464   2.3464   2.3474   2.3474   2.5785   2.5785   2.5800   2.5800
     3.7442   3.7442   3.9815   3.9815   5.2509   5.2509   5.2525   5.2525
     5.7916   5.7916   5.8353   5.8353   6.1421   6.1421   7.4169   7.4169
     7.4183   7.4183   7.8415   7.8415   8.2085   8.2085   8.9468   8.9468
    10.2626  10.2626  10.5969  10.5969  11.0110  11.0110  11.0125  11.0125
    11.9261  11.9261  12.1809  12.1809  12.6587  12.6587  13.5636  13.5636
    13.5650  13.5650  14.0214  14.0214

          k = 0.0409 0.0000 0.0409 (  9214 PWs)   bands (ev):

    -3.7465  -3.7465  -3.7459  -3.7459  -3.7454  -3.7454  -3.7289  -3.7289
    -3.7225  -3.7225  -3.7113  -3.7113  -3.7094  -3.7094  -3.7093  -3.7093
    -3.3207  -3.3207  -3.3188  -3.3188  -3.3181  -3.3181  -3.3171  -3.3171
    -3.2499  -3.2499  -3.2467  -3.2467  -3.2465  -3.2465  -3.2458  -3.2458
    -3.2364  -3.2364  -3.2357  -3.2357  -3.2354  -3.2354  -3.2349  -3.2349
    -2.5874  -2.5874  -0.6205  -0.6205  -0.6203  -0.6203   0.7102   0.7102
     1.3463   1.3463   2.8288   2.8288   2.8291   2.8291   2.9177   2.9177
     3.7282   3.7282   3.7286   3.7286   4.7682   4.7682   5.6801   5.6801
     5.6803   5.6803   6.2550   6.2550   6.8832   6.8832   7.1366   7.1366
     7.6765   7.6765   7.6772   7.6772   9.3922   9.3922   9.7544   9.7544
     9.9341   9.9341  10.1132  10.1132  11.2458  11.2458  11.2466  11.2466
    12.1429  12.1429  12.6912  12.6912  12.6917  12.6917  12.9648  12.9648
    13.4190  13.4190  13.5953  13.5954

          k = 0.0409 0.0000-0.0817 (  9246 PWs)   bands (ev):

    -3.7402  -3.7402  -3.7387  -3.7387  -3.7374  -3.7374  -3.7359  -3.7359
    -3.7187  -3.7187  -3.7180  -3.7180  -3.7172  -3.7172  -3.7164  -3.7164
    -3.3203  -3.3203  -3.3196  -3.3196  -3.3189  -3.3189  -3.3177  -3.3177
    -3.2538  -3.2538  -3.2531  -3.2531  -3.2493  -3.2493  -3.2490  -3.2490
    -3.2361  -3.2361  -3.2359  -3.2359  -3.2357  -3.2357  -3.2351  -3.2351
    -1.8254  -1.8254  -1.8252  -1.8252   0.1619   0.1619   0.1621   0.1621
     1.5331   1.5331   1.5332   1.5332   3.4030   3.4030   3.4034   3.4034
     3.5755   3.5755   3.5756   3.5757   5.4684   5.4684   5.4688   5.4688
     5.7737   5.7737   5.7739   5.7739   7.3364   7.3364   7.3367   7.3367
     8.4340   8.4340   8.4342   8.4342   9.4599   9.4599   9.4601   9.4601
    10.5250  10.5250  10.5250  10.5250  11.1817  11.1817  11.1819  11.1819
    12.2094  12.2094  12.2096  12.2096  12.3642  12.3643  12.3644  12.3644
    13.4079  13.4079  13.4080  13.4080

          k = 0.0409 0.0000-0.0409 (  9214 PWs)   bands (ev):

    -3.7465  -3.7465  -3.7459  -3.7459  -3.7454  -3.7454  -3.7289  -3.7289
    -3.7225  -3.7225  -3.7113  -3.7113  -3.7094  -3.7094  -3.7093  -3.7093
    -3.3207  -3.3207  -3.3188  -3.3188  -3.3181  -3.3181  -3.3171  -3.3171
    -3.2499  -3.2499  -3.2468  -3.2468  -3.2465  -3.2465  -3.2458  -3.2458
    -3.2364  -3.2364  -3.2357  -3.2357  -3.2353  -3.2353  -3.2349  -3.2349
    -2.5874  -2.5874  -0.6205  -0.6205  -0.6204  -0.6204   0.7102   0.7102
     1.3465   1.3465   2.8289   2.8289   2.8291   2.8291   2.9172   2.9172
     3.7284   3.7284   3.7288   3.7288   4.7682   4.7682   5.6800   5.6800
     5.6801   5.6801   6.2551   6.2551   6.8829   6.8829   7.1369   7.1369
     7.6765   7.6765   7.6772   7.6772   9.3921   9.3921   9.7543   9.7543
     9.9344   9.9344  10.1135  10.1135  11.2459  11.2459  11.2466  11.2466
    12.1428  12.1428  12.6910  12.6910  12.6914  12.6914  12.9650  12.9650
    13.4191  13.4191  13.5953  13.5953

          k = 0.0409 0.0409 0.0000 (  9214 PWs)   bands (ev):

    -3.7464  -3.7464  -3.7458  -3.7458  -3.7454  -3.7454  -3.7290  -3.7290
    -3.7223  -3.7223  -3.7111  -3.7111  -3.7098  -3.7098  -3.7091  -3.7091
    -3.3206  -3.3206  -3.3187  -3.3187  -3.3182  -3.3182  -3.3171  -3.3171
    -3.2500  -3.2500  -3.2473  -3.2473  -3.2460  -3.2460  -3.2456  -3.2456
    -3.2368  -3.2368  -3.2362  -3.2362  -3.2348  -3.2348  -3.2346  -3.2346
    -2.5874  -2.5874  -0.6206  -0.6206  -0.6204  -0.6204   0.7103   0.7103
     1.3475   1.3475   2.8289   2.8289   2.8290   2.8290   2.9151   2.9151
     3.7296   3.7296   3.7298   3.7298   4.7684   4.7684   5.6791   5.6791
     5.6792   5.6792   6.2554   6.2554   6.8815   6.8815   7.1383   7.1383
     7.6769   7.6769   7.6770   7.6770   9.3919   9.3919   9.7540   9.7540
     9.9355   9.9355  10.1148  10.1148  11.2465  11.2465  11.2465  11.2465
    12.1424  12.1424  12.6901  12.6901  12.6903  12.6903  12.9659  12.9659
    13.4197  13.4197  13.5951  13.5951

          k = 0.0409 0.0409 0.0409 (  9249 PWs)   bands (ev):

    -3.7448  -3.7448  -3.7443  -3.7443  -3.7437  -3.7437  -3.7345  -3.7345
    -3.7206  -3.7206  -3.7142  -3.7142  -3.7136  -3.7136  -3.7132  -3.7132
    -3.3219  -3.3219  -3.3196  -3.3196  -3.3190  -3.3190  -3.3179  -3.3179
    -3.2537  -3.2537  -3.2534  -3.2534  -3.2527  -3.2527  -3.2522  -3.2522
    -3.2334  -3.2334  -3.2330  -3.2330  -3.2323  -3.2323  -3.2308  -3.2308
    -2.3250  -2.3250  -0.3582  -0.3582  -0.3579  -0.3579  -0.3573  -0.3573
     1.7238   1.7238   1.7245   1.7245   1.7247   1.7247   3.7290   3.7290
     4.2876   4.2876   4.2891   4.2891   4.2894   4.2894   6.5258   6.5258
     6.5260   6.5260   6.5264   6.5264   7.4545   7.4545   7.4547   7.4547
     7.4566   7.4566   8.1627   8.1627   8.3148   8.3148   8.6802   8.6802
    10.6296  10.6296  11.0439  11.0439  11.1975  11.1975  12.1839  12.1839
    12.1847  12.1847  12.1849  12.1849  12.8316  12.8316  12.8319  12.8320
    12.8322  12.8322  13.1609  13.1610

          k = 0.0409 0.0409-0.0817 (  9230 PWs)   bands (ev):

    -3.7425  -3.7425  -3.7415  -3.7415  -3.7409  -3.7409  -3.7399  -3.7399
    -3.7193  -3.7193  -3.7187  -3.7187  -3.7178  -3.7178  -3.7174  -3.7174
    -3.3217  -3.3217  -3.3205  -3.3205  -3.3203  -3.3203  -3.3188  -3.3188
    -3.2586  -3.2586  -3.2578  -3.2578  -3.2565  -3.2565  -3.2556  -3.2556
    -3.2318  -3.2318  -3.2311  -3.2311  -3.2303  -3.2303  -3.2294  -3.2294
    -1.5601  -1.5601  -1.5600  -1.5600   0.2204   0.2204   0.2207   0.2207
     0.7056   0.7056   0.7058   0.7058   2.5115   2.5115   2.5116   2.5116
     4.6001   4.6001   4.6005   4.6005   6.3275   6.3275   6.3277   6.3277
     6.4883   6.4883   6.4885   6.4885   7.3127   7.3127   7.3128   7.3128
     8.5812   8.5812   8.5814   8.5814   9.5814   9.5814   9.5815   9.5815
     9.8447   9.8447   9.8449   9.8449  10.7286  10.7286  10.7287  10.7287
    11.8194  11.8194  11.8196  11.8196  12.5818  12.5818  12.5820  12.5820
    13.1089  13.1089  13.1092  13.1093

          k = 0.0409 0.0409-0.0409 (  9249 PWs)   bands (ev):

    -3.7448  -3.7448  -3.7443  -3.7443  -3.7437  -3.7437  -3.7345  -3.7345
    -3.7206  -3.7206  -3.7142  -3.7142  -3.7136  -3.7136  -3.7132  -3.7132
    -3.3219  -3.3219  -3.3196  -3.3196  -3.3190  -3.3190  -3.3179  -3.3179
    -3.2537  -3.2537  -3.2534  -3.2534  -3.2527  -3.2527  -3.2522  -3.2522
    -3.2334  -3.2334  -3.2330  -3.2330  -3.2323  -3.2323  -3.2308  -3.2308
    -2.3251  -2.3251  -0.3585  -0.3585  -0.3580  -0.3580  -0.3571  -0.3571
     1.7236   1.7236   1.7246   1.7246   1.7251   1.7251   3.7289   3.7289
     4.2874   4.2874   4.2891   4.2891   4.2894   4.2894   6.5254   6.5254
     6.5261   6.5261   6.5269   6.5269   7.4545   7.4545   7.4547   7.4547
     7.4568   7.4568   8.1625   8.1625   8.3147   8.3147   8.6801   8.6801
    10.6297  10.6297  11.0440  11.0440  11.1978  11.1978  12.1836  12.1836
    12.1847  12.1847  12.1852  12.1852  12.8313  12.8313  12.8318  12.8319
    12.8323  12.8323  13.1606  13.1611

          k = 0.0409-0.0817 0.0000 (  9246 PWs)   bands (ev):

    -3.7396  -3.7396  -3.7394  -3.7394  -3.7367  -3.7367  -3.7366  -3.7366
    -3.7182  -3.7182  -3.7180  -3.7180  -3.7172  -3.7172  -3.7169  -3.7169
    -3.3203  -3.3203  -3.3195  -3.3195  -3.3190  -3.3190  -3.3178  -3.3178
    -3.2536  -3.2536  -3.2535  -3.2535  -3.2491  -3.2491  -3.2488  -3.2488
    -3.2367  -3.2367  -3.2364  -3.2364  -3.2351  -3.2351  -3.2348  -3.2348
    -1.8253  -1.8253  -1.8253  -1.8253   0.1616   0.1616   0.1624   0.1624
     1.5331   1.5331   1.5333   1.5333   3.4013   3.4013   3.4051   3.4051
     3.5754   3.5754   3.5757   3.5757   5.4667   5.4667   5.4705   5.4705
     5.7725   5.7725   5.7750   5.7750   7.3348   7.3348   7.3383   7.3383
     8.4338   8.4338   8.4343   8.4343   9.4590   9.4590   9.4610   9.4610
    10.5248  10.5248  10.5251  10.5251  11.1810  11.1810  11.1825  11.1825
    12.2091  12.2091  12.2099  12.2099  12.3637  12.3637  12.3649  12.3649
    13.4077  13.4078  13.4081  13.4082

          k = 0.0409-0.0817 0.0409 (  9230 PWs)   bands (ev):

    -3.7422  -3.7422  -3.7420  -3.7420  -3.7404  -3.7404  -3.7403  -3.7403
    -3.7189  -3.7189  -3.7188  -3.7188  -3.7178  -3.7178  -3.7176  -3.7176
    -3.3216  -3.3216  -3.3210  -3.3210  -3.3199  -3.3199  -3.3189  -3.3189
    -3.2583  -3.2583  -3.2581  -3.2581  -3.2561  -3.2561  -3.2559  -3.2559
    -3.2317  -3.2317  -3.2315  -3.2315  -3.2298  -3.2298  -3.2296  -3.2296
    -1.5601  -1.5601  -1.5600  -1.5600   0.2208   0.2208   0.2232   0.2232
     0.7026   0.7026   0.7051   0.7051   2.5114   2.5114   2.5119   2.5119
     4.5997   4.5997   4.6021   4.6021   6.3258   6.3258   6.3279   6.3279
     6.4893   6.4893   6.4905   6.4905   7.3122   7.3122   7.3126   7.3126
     8.5788   8.5788   8.5797   8.5797   9.5809   9.5809   9.5812   9.5812
     9.8446   9.8446   9.8460   9.8460  10.7301  10.7301  10.7305  10.7305
    11.8188  11.8188  11.8202  11.8202  12.5789  12.5789  12.5808  12.5808
    13.1094  13.1094  13.1112  13.1112

          k = 0.0409-0.0817-0.0817 (  9256 PWs)   bands (ev):

    -3.7450  -3.7450  -3.7449  -3.7449  -3.7439  -3.7439  -3.7438  -3.7438
    -3.7196  -3.7196  -3.7194  -3.7194  -3.7184  -3.7184  -3.7182  -3.7182
    -3.3226  -3.3226  -3.3218  -3.3218  -3.3213  -3.3213  -3.3200  -3.3200
    -3.2617  -3.2617  -3.2615  -3.2615  -3.2606  -3.2606  -3.2605  -3.2605
    -3.2281  -3.2281  -3.2280  -3.2280  -3.2270  -3.2270  -3.2268  -3.2268
    -0.7951  -0.7951  -0.7948  -0.7948  -0.7941  -0.7941  -0.7938  -0.7938
     1.2907   1.2907   1.2911   1.2911   1.2922   1.2922   1.2924   1.2924
     5.8463   5.8463   5.8468   5.8468   5.8472   5.8472   5.8476   5.8476
     8.0164   8.0164   8.0168   8.0168   8.0178   8.0178   8.0182   8.0182
     8.7916   8.7916   8.7917   8.7917   8.7932   8.7932   8.7933   8.7933
    10.3547  10.3547  10.3549  10.3549  10.3569  10.3569  10.3571  10.3571
    10.6648  10.6648  10.6651  10.6651  10.6668  10.6668  10.6671  10.6671
    12.9909  12.9911  12.9919  12.9926

          k = 0.0409-0.0817-0.0409 (  9230 PWs)   bands (ev):

    -3.7422  -3.7422  -3.7420  -3.7420  -3.7404  -3.7404  -3.7403  -3.7403
    -3.7189  -3.7189  -3.7188  -3.7188  -3.7178  -3.7178  -3.7176  -3.7176
    -3.3216  -3.3216  -3.3210  -3.3210  -3.3199  -3.3199  -3.3189  -3.3189
    -3.2583  -3.2583  -3.2581  -3.2581  -3.2561  -3.2561  -3.2559  -3.2559
    -3.2317  -3.2317  -3.2315  -3.2315  -3.2298  -3.2298  -3.2296  -3.2296
    -1.5601  -1.5601  -1.5600  -1.5600   0.2206   0.2206   0.2229   0.2229
     0.7030   0.7030   0.7055   0.7055   2.5114   2.5114   2.5119   2.5119
     4.5996   4.5996   4.6020   4.6020   6.3260   6.3260   6.3280   6.3280
     6.4891   6.4891   6.4902   6.4902   7.3123   7.3123   7.3127   7.3127
     8.5792   8.5792   8.5801   8.5801   9.5810   9.5810   9.5813   9.5813
     9.8445   9.8445   9.8459   9.8459  10.7298  10.7298  10.7301  10.7301
    11.8188  11.8188  11.8202  11.8202  12.5793  12.5793  12.5811  12.5811
    13.1092  13.1092  13.1110  13.1110

          k = 0.0409-0.0409 0.0000 (  9214 PWs)   bands (ev):

    -3.7464  -3.7464  -3.7459  -3.7459  -3.7455  -3.7455  -3.7288  -3.7288
    -3.7226  -3.7226  -3.7111  -3.7111  -3.7097  -3.7097  -3.7090  -3.7090
    -3.3207  -3.3207  -3.3187  -3.3187  -3.3182  -3.3182  -3.3171  -3.3171
    -3.2500  -3.2500  -3.2472  -3.2472  -3.2461  -3.2461  -3.2455  -3.2455
    -3.2368  -3.2368  -3.2363  -3.2363  -3.2349  -3.2349  -3.2346  -3.2346
    -2.5873  -2.5873  -0.6203  -0.6203  -0.6203  -0.6203   0.7102   0.7102
     1.3453   1.3453   2.8290   2.8290   2.8291   2.8291   2.9198   2.9198
     3.7273   3.7273   3.7273   3.7273   4.7680   4.7680   5.6811   5.6811
     5.6811   5.6811   6.2548   6.2548   6.8846   6.8846   7.1351   7.1351
     7.6767   7.6767   7.6767   7.6767   9.3924   9.3924   9.7548   9.7548
     9.9330   9.9330  10.1119  10.1119  11.2460  11.2460  11.2460  11.2460
    12.1434  12.1434  12.6925  12.6925  12.6926  12.6926  12.9639  12.9639
    13.4185  13.4185  13.5955  13.5955

          k = 0.0409-0.0409 0.0409 (  9249 PWs)   bands (ev):

    -3.7449  -3.7449  -3.7443  -3.7443  -3.7438  -3.7438  -3.7344  -3.7344
    -3.7208  -3.7208  -3.7141  -3.7141  -3.7136  -3.7136  -3.7131  -3.7131
    -3.3219  -3.3219  -3.3196  -3.3196  -3.3190  -3.3190  -3.3179  -3.3179
    -3.2537  -3.2537  -3.2534  -3.2534  -3.2526  -3.2526  -3.2522  -3.2522
    -3.2334  -3.2334  -3.2330  -3.2330  -3.2324  -3.2324  -3.2308  -3.2308
    -2.3250  -2.3250  -0.3584  -0.3584  -0.3575  -0.3575  -0.3570  -0.3570
     1.7229   1.7229   1.7235   1.7235   1.7244   1.7244   3.7292   3.7292
     4.2892   4.2892   4.2892   4.2892   4.2910   4.2910   6.5250   6.5250
     6.5258   6.5258   6.5265   6.5265   7.4528   7.4528   7.4550   7.4550
     7.4551   7.4551   8.1646   8.1646   8.3156   8.3156   8.6805   8.6805
    10.6283  10.6283  11.0424  11.0424  11.1940  11.1940  12.1838  12.1838
    12.1843  12.1843  12.1855  12.1855  12.8325  12.8325  12.8330  12.8330
    12.8335  12.8335  13.1615  13.1619

          k = 0.0409-0.0409-0.0817 (  9230 PWs)   bands (ev):

    -3.7427  -3.7427  -3.7415  -3.7415  -3.7409  -3.7409  -3.7399  -3.7399
    -3.7191  -3.7191  -3.7188  -3.7188  -3.7177  -3.7177  -3.7175  -3.7175
    -3.3217  -3.3217  -3.3205  -3.3205  -3.3203  -3.3203  -3.3188  -3.3188
    -3.2584  -3.2584  -3.2577  -3.2577  -3.2566  -3.2566  -3.2557  -3.2557
    -3.2319  -3.2319  -3.2312  -3.2312  -3.2303  -3.2303  -3.2294  -3.2294
    -1.5602  -1.5602  -1.5600  -1.5600   0.2231   0.2231   0.2233   0.2233
     0.7023   0.7023   0.7026   0.7026   2.5117   2.5117   2.5118   2.5119
     4.6013   4.6013   4.6015   4.6015   6.3262   6.3262   6.3264   6.3264
     6.4911   6.4911   6.4912   6.4912   7.3120   7.3121   7.3122   7.3122
     8.5776   8.5776   8.5777   8.5777   9.5806   9.5807   9.5807   9.5807
     9.8455   9.8455   9.8457   9.8457  10.7316  10.7316  10.7317  10.7317
    11.8194  11.8194  11.8195  11.8195  12.5780  12.5780  12.5782  12.5783
    13.1112  13.1112  13.1114  13.1114

          k = 0.0409-0.0409-0.0409 (  9249 PWs)   bands (ev):

    -3.7449  -3.7449  -3.7443  -3.7443  -3.7438  -3.7438  -3.7344  -3.7344
    -3.7208  -3.7208  -3.7141  -3.7141  -3.7136  -3.7136  -3.7131  -3.7131
    -3.3219  -3.3219  -3.3196  -3.3196  -3.3190  -3.3190  -3.3179  -3.3179
    -3.2536  -3.2536  -3.2534  -3.2534  -3.2526  -3.2526  -3.2522  -3.2522
    -3.2334  -3.2334  -3.2330  -3.2330  -3.2324  -3.2324  -3.2308  -3.2308
    -2.3250  -2.3250  -0.3581  -0.3581  -0.3575  -0.3575  -0.3573  -0.3573
     1.7233   1.7233   1.7235   1.7235   1.7242   1.7242   3.7292   3.7292
     4.2890   4.2890   4.2892   4.2892   4.2908   4.2908   6.5255   6.5255
     6.5259   6.5259   6.5260   6.5260   7.4531   7.4531   7.4550   7.4550
     7.4551   7.4551   8.1644   8.1644   8.3155   8.3155   8.6805   8.6805
    10.6284  10.6284  11.0426  11.0426  11.1944  11.1944  12.1842  12.1842
    12.1842  12.1843  12.1851  12.1851  12.8326  12.8326  12.8329  12.8329
    12.8332  12.8332  13.1617  13.1619

          k =-0.0817 0.0000 0.0000 (  9242 PWs)   bands (ev):

    -3.7422  -3.7422  -3.7410  -3.7410  -3.7388  -3.7388  -3.7378  -3.7378
    -3.7152  -3.7152  -3.7142  -3.7142  -3.7127  -3.7127  -3.7115  -3.7115
    -3.3197  -3.3197  -3.3187  -3.3187  -3.3173  -3.3173  -3.3161  -3.3161
    -3.2497  -3.2497  -3.2486  -3.2486  -3.2418  -3.2418  -3.2406  -3.2406
    -3.2395  -3.2395  -3.2387  -3.2387  -3.2379  -3.2379  -3.2368  -3.2368
    -2.0939  -2.0939  -2.0939  -2.0939   1.2622   1.2622   1.2624   1.2624
     1.2683   1.2683   1.2685   1.2685   2.4748   2.4748   2.4758   2.4758
     4.6674   4.6674   4.6675   4.6675   4.8585   4.8585   4.8602   4.8602
     6.2757   6.2757   6.2759   6.2759   6.6451   6.6451   6.6451   6.6451
     6.9630   6.9630   6.9630   6.9630  10.2717  10.2717  10.2717  10.2717
    10.2813  10.2813  10.2814  10.2814  11.1346  11.1346  11.1347  11.1347
    12.8481  12.8481  12.8494  12.8494  13.3256  13.3256  13.3257  13.3257
    13.4554  13.4554  13.4561  13.4561

          k =-0.0817 0.0000 0.0409 (  9246 PWs)   bands (ev):

    -3.7400  -3.7400  -3.7389  -3.7389  -3.7371  -3.7371  -3.7363  -3.7363
    -3.7184  -3.7184  -3.7178  -3.7178  -3.7175  -3.7175  -3.7166  -3.7166
    -3.3203  -3.3203  -3.3195  -3.3195  -3.3190  -3.3190  -3.3177  -3.3177
    -3.2538  -3.2538  -3.2532  -3.2532  -3.2493  -3.2493  -3.2490  -3.2490
    -3.2360  -3.2360  -3.2358  -3.2358  -3.2357  -3.2357  -3.2352  -3.2352
    -1.8253  -1.8253  -1.8253  -1.8253   0.1619   0.1620   0.1620   0.1620
     1.5331   1.5331   1.5333   1.5333   3.4029   3.4029   3.4035   3.4035
     3.5755   3.5755   3.5756   3.5756   5.4684   5.4684   5.4688   5.4688
     5.7731   5.7731   5.7745   5.7745   7.3363   7.3364   7.3367   7.3367
     8.4340   8.4340   8.4341   8.4341   9.4599   9.4599   9.4601   9.4601
    10.5249  10.5249  10.5251  10.5251  11.1815  11.1815  11.1821  11.1821
    12.2093  12.2093  12.2097  12.2097  12.3642  12.3642  12.3644  12.3644
    13.4076  13.4076  13.4083  13.4083

          k =-0.0817 0.0000-0.0817 (  9220 PWs)   bands (ev):

    -3.7356  -3.7356  -3.7353  -3.7353  -3.7352  -3.7352  -3.7347  -3.7347
    -3.7230  -3.7230  -3.7229  -3.7229  -3.7227  -3.7227  -3.7220  -3.7220
    -3.3213  -3.3213  -3.3204  -3.3204  -3.3199  -3.3199  -3.3186  -3.3186
    -3.2561  -3.2561  -3.2561  -3.2561  -3.2559  -3.2559  -3.2556  -3.2556
    -3.2346  -3.2346  -3.2344  -3.2344  -3.2343  -3.2343  -3.2340  -3.2340
    -1.0499  -1.0499  -1.0498  -1.0498  -1.0497  -1.0497  -1.0496  -1.0496
     2.3227   2.3227   2.3230   2.3230   2.3231   2.3231   2.3232   2.3232
     4.3964   4.3964   4.3966   4.3966   4.3968   4.3968   4.3970   4.3970
     7.8409   7.8409   7.8412   7.8412   7.8412   7.8412   7.8416   7.8416
     8.6295   8.6295   8.6298   8.6298   8.6302   8.6302   8.6305   8.6305
    11.0823  11.0823  11.0824  11.0824  11.0825  11.0825  11.0825  11.0825
    11.4198  11.4198  11.4199  11.4199  11.4199  11.4199  11.4200  11.4200
    13.8902  13.8903  13.8905  13.8907

          k =-0.0817 0.0409 0.0000 (  9246 PWs)   bands (ev):

    -3.7400  -3.7400  -3.7390  -3.7390  -3.7371  -3.7371  -3.7362  -3.7362
    -3.7185  -3.7185  -3.7180  -3.7180  -3.7172  -3.7172  -3.7166  -3.7166
    -3.3203  -3.3203  -3.3195  -3.3195  -3.3190  -3.3190  -3.3177  -3.3177
    -3.2538  -3.2538  -3.2533  -3.2533  -3.2491  -3.2491  -3.2488  -3.2488
    -3.2366  -3.2366  -3.2365  -3.2365  -3.2350  -3.2350  -3.2348  -3.2348
    -1.8253  -1.8253  -1.8253  -1.8253   0.1616   0.1616   0.1624   0.1624
     1.5330   1.5331   1.5333   1.5333   3.4013   3.4013   3.4051   3.4051
     3.5754   3.5754   3.5757   3.5757   5.4667   5.4667   5.4705   5.4705
     5.7724   5.7724   5.7751   5.7751   7.3348   7.3348   7.3383   7.3383
     8.4338   8.4338   8.4343   8.4343   9.4590   9.4590   9.4610   9.4610
    10.5248  10.5248  10.5252  10.5252  11.1810  11.1810  11.1826  11.1826
    12.2091  12.2091  12.2099  12.2099  12.3637  12.3637  12.3649  12.3649
    13.4076  13.4076  13.4083  13.4083

          k =-0.0817 0.0409 0.0409 (  9230 PWs)   bands (ev):

    -3.7425  -3.7425  -3.7417  -3.7417  -3.7406  -3.7406  -3.7401  -3.7401
    -3.7190  -3.7190  -3.7188  -3.7188  -3.7178  -3.7178  -3.7175  -3.7175
    -3.3216  -3.3216  -3.3208  -3.3208  -3.3201  -3.3201  -3.3188  -3.3188
    -3.2585  -3.2585  -3.2579  -3.2579  -3.2563  -3.2563  -3.2558  -3.2558
    -3.2317  -3.2317  -3.2314  -3.2314  -3.2300  -3.2300  -3.2295  -3.2295
    -1.5601  -1.5601  -1.5600  -1.5600   0.2205   0.2205   0.2232   0.2232
     0.7026   0.7026   0.7055   0.7055   2.5114   2.5114   2.5120   2.5120
     4.5995   4.5995   4.6022   4.6022   6.3257   6.3257   6.3281   6.3281
     6.4893   6.4893   6.4903   6.4903   7.3122   7.3122   7.3127   7.3127
     8.5790   8.5790   8.5799   8.5799   9.5806   9.5806   9.5815   9.5815
     9.8444   9.8444   9.8461   9.8461  10.7300  10.7300  10.7303  10.7303
    11.8187  11.8187  11.8203  11.8203  12.5792  12.5792  12.5809  12.5809
    13.1092  13.1092  13.1112  13.1112

          k =-0.0817 0.0409-0.0817 (  9256 PWs)   bands (ev):

    -3.7450  -3.7450  -3.7448  -3.7448  -3.7439  -3.7439  -3.7438  -3.7438
    -3.7195  -3.7195  -3.7194  -3.7194  -3.7184  -3.7184  -3.7182  -3.7182
    -3.3226  -3.3226  -3.3218  -3.3218  -3.3213  -3.3213  -3.3200  -3.3200
    -3.2617  -3.2617  -3.2614  -3.2614  -3.2607  -3.2607  -3.2605  -3.2605
    -3.2281  -3.2281  -3.2279  -3.2279  -3.2270  -3.2270  -3.2269  -3.2269
    -0.7948  -0.7948  -0.7946  -0.7946  -0.7943  -0.7943  -0.7942  -0.7942
     1.2910   1.2910   1.2912   1.2912   1.2921   1.2921   1.2921   1.2921
     5.8466   5.8466   5.8468   5.8468   5.8472   5.8472   5.8474   5.8474
     8.0167   8.0167   8.0169   8.0169   8.0177   8.0177   8.0180   8.0180
     8.7915   8.7915   8.7918   8.7919   8.7930   8.7930   8.7933   8.7933
    10.3548  10.3548  10.3549  10.3549  10.3568  10.3568  10.3570  10.3570
    10.6651  10.6651  10.6652  10.6652  10.6668  10.6668  10.6669  10.6669
    12.9909  12.9920  12.9921  12.9926

          k =-0.0817 0.0409-0.0409 (  9230 PWs)   bands (ev):

    -3.7425  -3.7425  -3.7417  -3.7417  -3.7406  -3.7406  -3.7401  -3.7401
    -3.7190  -3.7190  -3.7188  -3.7188  -3.7178  -3.7178  -3.7175  -3.7175
    -3.3216  -3.3216  -3.3208  -3.3208  -3.3201  -3.3201  -3.3188  -3.3188
    -3.2585  -3.2585  -3.2579  -3.2579  -3.2563  -3.2563  -3.2558  -3.2558
    -3.2317  -3.2317  -3.2314  -3.2314  -3.2300  -3.2300  -3.2295  -3.2295
    -1.5601  -1.5601  -1.5600  -1.5600   0.2207   0.2207   0.2231   0.2231
     0.7027   0.7027   0.7054   0.7054   2.5114   2.5114   2.5120   2.5120
     4.5997   4.5997   4.6021   4.6021   6.3257   6.3257   6.3281   6.3281
     6.4891   6.4891   6.4904   6.4904   7.3122   7.3122   7.3127   7.3127
     8.5789   8.5789   8.5800   8.5800   9.5804   9.5804   9.5818   9.5818
     9.8443   9.8443   9.8462   9.8462  10.7298  10.7298  10.7305  10.7305
    11.8187  11.8187  11.8203  11.8203  12.5790  12.5790  12.5811  12.5811
    13.1092  13.1092  13.1112  13.1112

          k =-0.0817-0.0817 0.0000 (  9220 PWs)   bands (ev):

    -3.7362  -3.7362  -3.7358  -3.7358  -3.7346  -3.7346  -3.7341  -3.7341
    -3.7237  -3.7237  -3.7233  -3.7233  -3.7221  -3.7221  -3.7216  -3.7216
    -3.3213  -3.3213  -3.3204  -3.3204  -3.3199  -3.3199  -3.3186  -3.3186
    -3.2569  -3.2569  -3.2566  -3.2566  -3.2552  -3.2552  -3.2549  -3.2549
    -3.2353  -3.2353  -3.2351  -3.2351  -3.2335  -3.2335  -3.2334  -3.2334
    -1.0500  -1.0500  -1.0498  -1.0498  -1.0496  -1.0496  -1.0496  -1.0496
     2.3228   2.3228   2.3229   2.3229   2.3232   2.3232   2.3232   2.3232
     4.3948   4.3948   4.3949   4.3949   4.3985   4.3985   4.3986   4.3986
     7.8406   7.8406   7.8408   7.8408   7.8418   7.8418   7.8418   7.8418
     8.6278   8.6278   8.6279   8.6279   8.6320   8.6320   8.6322   8.6322
    11.0821  11.0821  11.0821  11.0821  11.0828  11.0828  11.0828  11.0828
    11.4195  11.4195  11.4195  11.4195  11.4202  11.4202  11.4203  11.4203
    13.8904  13.8904  13.8905  13.8905

          k =-0.0817-0.0817 0.0409 (  9256 PWs)   bands (ev):

    -3.7451  -3.7451  -3.7449  -3.7449  -3.7439  -3.7439  -3.7437  -3.7437
    -3.7196  -3.7196  -3.7194  -3.7194  -3.7184  -3.7184  -3.7182  -3.7182
    -3.3226  -3.3226  -3.3218  -3.3218  -3.3213  -3.3213  -3.3200  -3.3200
    -3.2618  -3.2618  -3.2615  -3.2615  -3.2606  -3.2606  -3.2604  -3.2604
    -3.2282  -3.2282  -3.2280  -3.2280  -3.2269  -3.2269  -3.2268  -3.2268
    -0.7948  -0.7948  -0.7946  -0.7946  -0.7943  -0.7943  -0.7942  -0.7942
     1.2910   1.2910   1.2912   1.2912   1.2920   1.2920   1.2921   1.2921
     5.8454   5.8454   5.8455   5.8455   5.8485   5.8485   5.8486   5.8486
     8.0165   8.0165   8.0168   8.0168   8.0179   8.0179   8.0180   8.0180
     8.7904   8.7904   8.7906   8.7906   8.7942   8.7943   8.7945   8.7945
    10.3552  10.3552  10.3554  10.3554  10.3564  10.3564  10.3566  10.3566
    10.6654  10.6654  10.6656  10.6656  10.6663  10.6663  10.6665  10.6665
    12.9915  12.9919  12.9930  12.9934

          k =-0.0817-0.0817-0.0817 (  9328 PWs)   bands (ev):

    -3.7520  -3.7520  -3.7519  -3.7519  -3.7509  -3.7509  -3.7508  -3.7508
    -3.7178  -3.7178  -3.7177  -3.7177  -3.7167  -3.7167  -3.7165  -3.7165
    -3.3238  -3.3238  -3.3231  -3.3231  -3.3226  -3.3226  -3.3214  -3.3214
    -3.2650  -3.2650  -3.2647  -3.2647  -3.2639  -3.2639  -3.2638  -3.2638
    -3.2232  -3.2232  -3.2231  -3.2231  -3.2221  -3.2221  -3.2219  -3.2219
    -0.2495  -0.2495  -0.2493  -0.2493  -0.2470  -0.2470  -0.2468  -0.2468
     0.3010   0.3010   0.3013   0.3013   0.3042   0.3042   0.3044   0.3044
     7.7867   7.7867   7.7868   7.7868   7.7890   7.7890   7.7892   7.7892
     8.0863   8.0863   8.0866   8.0866   8.0874   8.0874   8.0877   8.0877
     8.4404   8.4404   8.4407   8.4407   8.4414   8.4414   8.4418   8.4418
     9.8687   9.8687   9.8690   9.8690   9.8704   9.8704   9.8707   9.8707
    10.2762  10.2762  10.2764  10.2764  10.2779  10.2779  10.2782  10.2782
    11.0898  11.0898  11.0901  11.0901

     the Fermi energy is    12.2598 ev

!    total energy              =    -831.57651776 Ry
     Harris-Foulkes estimate   =    -831.57652031 Ry
     estimated scf accuracy    <       0.00000329 Ry

     convergence has been achieved in   7 iterations

     Forces acting on atoms (Ry/au):

     atom    1 type  1   force =    -0.00006521    0.00005402   -0.00005424
     atom    2 type  1   force =     0.00005368   -0.00006085   -0.00006723
     atom    3 type  1   force =     0.00005750    0.00006895    0.00006550
     atom    4 type  1   force =    -0.00004238   -0.00002381    0.00005376
     atom    5 type  2   force =    -0.00023250    0.00006251    0.00067710
     atom    6 type  2   force =    -0.00023958    0.00018891   -0.00067124
     atom    7 type  2   force =    -0.00024077   -0.00007592   -0.00069949
     atom    8 type  2   force =     0.00023255    0.00019291   -0.00070544
     atom    9 type  2   force =     0.00023650   -0.00019865    0.00067225
     atom   10 type  2   force =    -0.00023319   -0.00020269    0.00070661
     atom   11 type  2   force =     0.00024113    0.00006668    0.00069879
     atom   12 type  2   force =     0.00023226   -0.00007207   -0.00067637

     Total force =     0.002110     Total SCF correction =     0.000524
     SCF correction compared to forces is large: reduce conv_thr to get better values

     Molecular Dynamics Calculation

     Starting temperature  =   300.00 K

     temperature is controlled by Andersen thermostat
     Collision frequency = 1.0000/timestep
     mass Ga               =    69.72
     mass Sb               =   121.76
     Time step             =    20.67 a.u.,  1.0000 femto-seconds

     Entering Dynamics:    iteration =     1
                           time      =   0.0010 pico-seconds


     Andersen thermostat:   12 collisions

ATOMIC_POSITIONS (alat)
Ga       0.001630387   0.002335875   0.001995032
Ga       3.058098462   3.056610947   0.000959781
Ga       3.062303224  -0.001732449   3.059202032
Ga       0.002898705   3.058804759   3.059603629
Sb       1.528174034   1.529414267   1.531053149
Sb       1.528666517   1.528991180   4.590723015
Sb       1.530866016   4.586863286   1.528771617
Sb       4.587301640   1.529872027   1.529818157
Sb       4.588497194   4.588077387   1.527962893
Sb       1.528738653   4.588825399   4.586259958
Sb       4.588552405   1.531641910   4.585013909
Sb       4.587234793   4.589448842   4.590243955


     kinetic energy (Ekin) =     0.03320914 Ry
     temperature           =   317.77588796 K 
     Ekin + Etot (const)   =  -831.54330862 Ry

     Linear momentum :    0.0000000000   -0.0000000000    0.0000000000

     Writing output data file x.save
     NEW-OLD atomic charge density approx. for the potential

     Check: negative/imaginary core charge=   -0.000002    0.000000

     total cpu time spent up to now is      242.0 secs

     per-process dynamical memory:   153.6 Mb

     Self-consistent Calculation

     iteration #  1     ecut=    50.00 Ry     beta=0.45
     Davidson diagonalization with overlap
     ethr =  1.00E-06,  avg # of iterations =  3.1

     Threshold (ethr) on eigenvalues was too large:
     Diagonalizing with lowered threshold

     Davidson diagonalization with overlap
     ethr =  8.88E-09,  avg # of iterations =  5.2

     total cpu time spent up to now is      314.6 secs

     total energy              =    -831.57650124 Ry
     Harris-Foulkes estimate   =    -831.57652786 Ry
     estimated scf accuracy    <       0.00005807 Ry

     iteration #  2     ecut=    50.00 Ry     beta=0.45
     Davidson diagonalization with overlap
     ethr =  6.31E-08,  avg # of iterations =  2.0

     total cpu time spent up to now is      339.3 secs

     End of self-consistent calculation

          k = 0.0000 0.0000 0.0000 (  9171 PWs)   bands (ev):

    -3.7629  -3.7629  -3.7623  -3.7623  -3.7618  -3.7618  -3.7314  -3.7314
    -3.7311  -3.7311  -3.7072  -3.7072  -3.7064  -3.7064  -3.7060  -3.7060
    -3.3273  -3.3273  -3.3243  -3.3243  -3.3238  -3.3238  -3.3227  -3.3227
    -3.2492  -3.2492  -3.2487  -3.2487  -3.2482  -3.2482  -3.2455  -3.2455
    -3.2453  -3.2453  -3.2362  -3.2362  -3.2358  -3.2358  -3.2356  -3.2356
    -3.1023  -3.1023   0.1408   0.1408   0.1410   0.1410   0.1413   0.1413
     2.2391   2.2391   2.2405   2.2405   2.2422   2.2422   3.7548   3.7548
     3.7550   3.7550   3.7553   3.7553   5.5535   5.5535   5.5541   5.5541
     5.5549   5.5549   5.8587   5.8587   5.8593   5.8593   5.8602   5.8602
     6.7745   6.7745   8.5508   8.5508   9.2688   9.2688   9.2689   9.2689
     9.9824   9.9824   9.9839   9.9839   9.9854   9.9854  10.7039  10.7039
    11.0736  11.0736  11.0803  11.0803  11.8865  11.8865  14.3834  14.3834
    14.8964  14.8964  14.9047  14.9047

          k = 0.0000 0.0000 0.0409 (  9230 PWs)   bands (ev):

    -3.7573  -3.7571  -3.7567  -3.7567  -3.7560  -3.7559  -3.7349  -3.7348
    -3.7275  -3.7275  -3.7132  -3.7131  -3.7121  -3.7119  -3.7100  -3.7100
    -3.3261  -3.3260  -3.3251  -3.3250  -3.3240  -3.3239  -3.3227  -3.3226
    -3.2515  -3.2514  -3.2511  -3.2510  -3.2489  -3.2488  -3.2465  -3.2465
    -3.2459  -3.2459  -3.2416  -3.2416  -3.2410  -3.2409  -3.2394  -3.2394
    -2.8487  -2.8487  -0.8925  -0.8925   0.4287   0.4289   0.4289   0.4289
     2.3454   2.3463   2.3466   2.3469   2.5788   2.5791   2.5794   2.5799
     3.7435   3.7436   3.9815   3.9817   5.2513   5.2516   5.2517   5.2521
     5.7917   5.7920   5.8353   5.8354   6.1420   6.1421   7.4173   7.4175
     7.4177   7.4179   7.8412   7.8415   8.2078   8.2089   8.9456   8.9468
    10.2622  10.2623  10.5961  10.5979  11.0106  11.0108  11.0121  11.0121
    11.9257  11.9257  12.1799  12.1812  12.6582  12.6585  13.5639  13.5641
    13.5644  13.5646  14.0208  14.0210

          k = 0.0000 0.0000-0.0817 (  9242 PWs)   bands (ev):

    -3.7490  -3.7490  -3.7472  -3.7472  -3.7457  -3.7457  -3.7439  -3.7439
    -3.7222  -3.7222  -3.7204  -3.7204  -3.7196  -3.7196  -3.7177  -3.7177
    -3.3263  -3.3263  -3.3247  -3.3247  -3.3242  -3.3242  -3.3223  -3.3223
    -3.2565  -3.2565  -3.2548  -3.2548  -3.2487  -3.2487  -3.2469  -3.2469
    -3.2463  -3.2463  -3.2451  -3.2451  -3.2447  -3.2447  -3.2431  -3.2431
    -2.0950  -2.0950  -2.0929  -2.0929   1.2594   1.2594   1.2607   1.2607
     1.2699   1.2699   1.2714   1.2714   2.4744   2.4744   2.4751   2.4751
     4.6669   4.6669   4.6681   4.6681   4.8591   4.8591   4.8596   4.8596
     6.2744   6.2744   6.2762   6.2762   6.6439   6.6439   6.6462   6.6462
     6.9617   6.9617   6.9641   6.9641  10.2685  10.2685  10.2702  10.2702
    10.2828  10.2828  10.2845  10.2845  11.1337  11.1337  11.1351  11.1351
    12.8476  12.8476  12.8491  12.8491  13.3238  13.3238  13.3277  13.3277
    13.4541  13.4541  13.4571  13.4571

          k = 0.0000 0.0409 0.0000 (  9230 PWs)   bands (ev):

    -3.7572  -3.7571  -3.7566  -3.7566  -3.7561  -3.7560  -3.7349  -3.7348
    -3.7275  -3.7275  -3.7130  -3.7129  -3.7123  -3.7121  -3.7100  -3.7100
    -3.3262  -3.3260  -3.3249  -3.3248  -3.3242  -3.3240  -3.3227  -3.3226
    -3.2514  -3.2514  -3.2512  -3.2512  -3.2486  -3.2486  -3.2465  -3.2465
    -3.2460  -3.2460  -3.2415  -3.2415  -3.2411  -3.2411  -3.2394  -3.2393
    -2.8487  -2.8487  -0.8925  -0.8925   0.4288   0.4288   0.4289   0.4289
     2.3442   2.3449   2.3475   2.3483   2.5789   2.5791   2.5795   2.5799
     3.7436   3.7437   3.9814   3.9816   5.2509   5.2513   5.2520   5.2524
     5.7917   5.7920   5.8353   5.8354   6.1420   6.1421   7.4173   7.4174
     7.4178   7.4179   7.8412   7.8415   8.2077   8.2089   8.9455   8.9469
    10.2622  10.2622  10.5960  10.5980  11.0104  11.0105  11.0123  11.0124
    11.9258  11.9258  12.1798  12.1812  12.6581  12.6585  13.5639  13.5641
    13.5644  13.5646  14.0208  14.0209

          k = 0.0000 0.0409 0.0409 (  9214 PWs)   bands (ev):

    -3.7531  -3.7529  -3.7524  -3.7523  -3.7518  -3.7518  -3.7354  -3.7354
    -3.7290  -3.7290  -3.7179  -3.7178  -3.7161  -3.7160  -3.7157  -3.7157
    -3.3272  -3.3270  -3.3254  -3.3253  -3.3247  -3.3245  -3.3233  -3.3233
    -3.2565  -3.2563  -3.2533  -3.2533  -3.2532  -3.2530  -3.2524  -3.2523
    -3.2430  -3.2430  -3.2423  -3.2422  -3.2419  -3.2418  -3.2414  -3.2414
    -2.5875  -2.5875  -0.6207  -0.6207  -0.6202  -0.6202   0.7102   0.7104
     1.3461   1.3463   2.8286   2.8287   2.8291   2.8293   2.9170   2.9171
     3.7270   3.7273   3.7290   3.7291   4.7682   4.7684   5.6793   5.6799
     5.6804   5.6806   6.2545   6.2556   6.8826   6.8828   7.1362   7.1372
     7.6762   7.6765   7.6769   7.6777   9.3904   9.3936   9.7517   9.7565
     9.9330   9.9354  10.1110  10.1150  11.2453  11.2457  11.2461  11.2464
    12.1424  12.1425  12.6906  12.6911  12.6913  12.6917  12.9643  12.9652
    13.4185  13.4193  13.5939  13.5966

          k = 0.0000 0.0409-0.0817 (  9246 PWs)   bands (ev):

    -3.7469  -3.7467  -3.7452  -3.7451  -3.7440  -3.7439  -3.7424  -3.7423
    -3.7254  -3.7254  -3.7246  -3.7245  -3.7237  -3.7236  -3.7229  -3.7228
    -3.3268  -3.3268  -3.3261  -3.3260  -3.3254  -3.3254  -3.3239  -3.3239
    -3.2604  -3.2603  -3.2597  -3.2596  -3.2559  -3.2558  -3.2556  -3.2554
    -3.2427  -3.2427  -3.2425  -3.2424  -3.2422  -3.2422  -3.2416  -3.2416
    -1.8265  -1.8265  -1.8244  -1.8243   0.1609   0.1609   0.1628   0.1628
     1.5323   1.5323   1.5340   1.5341   3.4018   3.4019   3.4036   3.4037
     3.5747   3.5750   3.5762   3.5764   5.4670   5.4671   5.4694   5.4695
     5.7729   5.7731   5.7743   5.7745   7.3348   7.3361   7.3367   7.3378
     8.4324   8.4339   8.4345   8.4355   9.4589   9.4591   9.4605   9.4609
    10.5237  10.5239  10.5261  10.5262  11.1804  11.1805  11.1823  11.1826
    12.2064  12.2083  12.2107  12.2116  12.3611  12.3637  12.3658  12.3668
    13.4066  13.4073  13.4079  13.4085

          k = 0.0000 0.0409-0.0409 (  9214 PWs)   bands (ev):

    -3.7531  -3.7530  -3.7524  -3.7523  -3.7518  -3.7517  -3.7354  -3.7354
    -3.7290  -3.7290  -3.7179  -3.7178  -3.7161  -3.7160  -3.7158  -3.7157
    -3.3272  -3.3271  -3.3254  -3.3252  -3.3246  -3.3245  -3.3234  -3.3233
    -3.2565  -3.2563  -3.2533  -3.2532  -3.2532  -3.2531  -3.2524  -3.2523
    -3.2430  -3.2430  -3.2423  -3.2423  -3.2419  -3.2419  -3.2413  -3.2413
    -2.5875  -2.5875  -0.6212  -0.6212  -0.6198  -0.6197   0.7101   0.7104
     1.3461   1.3463   2.8273   2.8275   2.8303   2.8306   2.9171   2.9172
     3.7274   3.7277   3.7285   3.7287   4.7682   4.7685   5.6788   5.6795
     5.6808   5.6813   6.2548   6.2551   6.8828   6.8829   7.1364   7.1368
     7.6749   7.6755   7.6782   7.6787   9.3913   9.3928   9.7525   9.7558
     9.9334   9.9347  10.1113  10.1146  11.2456  11.2458  11.2459  11.2461
    12.1425  12.1425  12.6901  12.6904  12.6920  12.6925  12.9644  12.9650
    13.4184  13.4192  13.5948  13.5958

          k = 0.0000-0.0817 0.0000 (  9242 PWs)   bands (ev):

    -3.7487  -3.7487  -3.7476  -3.7476  -3.7454  -3.7454  -3.7442  -3.7442
    -3.7218  -3.7218  -3.7207  -3.7207  -3.7192  -3.7192  -3.7181  -3.7181
    -3.3261  -3.3261  -3.3252  -3.3252  -3.3239  -3.3239  -3.3224  -3.3224
    -3.2562  -3.2562  -3.2552  -3.2552  -3.2483  -3.2483  -3.2471  -3.2471
    -3.2461  -3.2461  -3.2453  -3.2453  -3.2445  -3.2445  -3.2431  -3.2431
    -2.0959  -2.0959  -2.0920  -2.0920   1.2601   1.2601   1.2636   1.2636
     1.2671   1.2671   1.2707   1.2707   2.4729   2.4729   2.4766   2.4766
     4.6657   4.6657   4.6693   4.6693   4.8592   4.8592   4.8595   4.8595
     6.2740   6.2740   6.2765   6.2765   6.6432   6.6432   6.6470   6.6470
     6.9609   6.9609   6.9649   6.9649  10.2698  10.2698  10.2728  10.2728
    10.2802  10.2802  10.2831  10.2831  11.1328  11.1328  11.1360  11.1360
    12.8475  12.8475  12.8491  12.8491  13.3230  13.3230  13.3285  13.3285
    13.4534  13.4534  13.4578  13.4578

          k = 0.0000-0.0817 0.0409 (  9246 PWs)   bands (ev):

    -3.7466  -3.7464  -3.7456  -3.7455  -3.7437  -3.7437  -3.7427  -3.7426
    -3.7251  -3.7250  -3.7243  -3.7242  -3.7239  -3.7239  -3.7232  -3.7231
    -3.3268  -3.3268  -3.3260  -3.3260  -3.3255  -3.3255  -3.3240  -3.3240
    -3.2602  -3.2602  -3.2598  -3.2598  -3.2558  -3.2558  -3.2556  -3.2555
    -3.2426  -3.2426  -3.2425  -3.2425  -3.2423  -3.2422  -3.2416  -3.2416
    -1.8274  -1.8273  -1.8235  -1.8235   0.1599   0.1599   0.1638   0.1638
     1.5313   1.5313   1.5350   1.5351   3.4008   3.4009   3.4046   3.4047
     3.5738   3.5740   3.5772   3.5775   5.4664   5.4665   5.4700   5.4701
     5.7728   5.7729   5.7745   5.7746   7.3344   7.3356   7.3370   7.3384
     8.4317   8.4328   8.4351   8.4365   9.4584   9.4586   9.4612   9.4614
    10.5230  10.5231  10.5268  10.5269  11.1798  11.1802  11.1829  11.1830
    12.2063  12.2082  12.2100  12.2125  12.3610  12.3636  12.3645  12.3681
    13.4067  13.4071  13.4081  13.4086

          k = 0.0000-0.0817-0.0817 (  9220 PWs)   bands (ev):

    -3.7422  -3.7422  -3.7419  -3.7419  -3.7417  -3.7417  -3.7411  -3.7411
    -3.7296  -3.7296  -3.7294  -3.7294  -3.7293  -3.7293  -3.7284  -3.7284
    -3.3277  -3.3277  -3.3269  -3.3269  -3.3264  -3.3264  -3.3248  -3.3248
    -3.2627  -3.2627  -3.2626  -3.2626  -3.2625  -3.2625  -3.2621  -3.2621
    -3.2411  -3.2411  -3.2411  -3.2411  -3.2408  -3.2408  -3.2404  -3.2404
    -1.0534  -1.0534  -1.0504  -1.0504  -1.0485  -1.0485  -1.0474  -1.0474
     2.3197   2.3197   2.3223   2.3223   2.3245   2.3245   2.3256   2.3256
     4.3928   4.3928   4.3955   4.3955   4.3972   4.3972   4.4000   4.4000
     7.8382   7.8382   7.8407   7.8407   7.8425   7.8425   7.8429   7.8429
     8.6280   8.6280   8.6292   8.6292   8.6305   8.6305   8.6316   8.6316
    11.0790  11.0790  11.0817  11.0817  11.0833  11.0833  11.0856  11.0856
    11.4161  11.4161  11.4192  11.4192  11.4208  11.4208  11.4234  11.4234
    13.8880  13.8903  13.8909  13.8923

          k = 0.0409 0.0000 0.0000 (  9230 PWs)   bands (ev):

    -3.7572  -3.7571  -3.7565  -3.7564  -3.7562  -3.7561  -3.7349  -3.7349
    -3.7275  -3.7275  -3.7129  -3.7128  -3.7124  -3.7123  -3.7100  -3.7100
    -3.3262  -3.3261  -3.3247  -3.3246  -3.3243  -3.3242  -3.3227  -3.3227
    -3.2515  -3.2514  -3.2513  -3.2512  -3.2485  -3.2484  -3.2465  -3.2464
    -3.2461  -3.2461  -3.2414  -3.2414  -3.2412  -3.2412  -3.2394  -3.2393
    -2.8487  -2.8487  -0.8925  -0.8925   0.4286   0.4287   0.4291   0.4291
     2.3457   2.3460   2.3465   2.3467   2.5788   2.5791   2.5796   2.5797
     3.7437   3.7437   3.9815   3.9816   5.2512   5.2515   5.2519   5.2521
     5.7918   5.7919   5.8353   5.8354   6.1420   6.1421   7.4173   7.4174
     7.4177   7.4180   7.8413   7.8414   8.2080   8.2086   8.9458   8.9465
    10.2622  10.2622  10.5965  10.5975  11.0112  11.0112  11.0116  11.0116
    11.9258  11.9258  12.1801  12.1809  12.6582  12.6584  13.5639  13.5641
    13.5643  13.5647  14.0208  14.0209

          k = 0.0409 0.0000 0.0409 (  9214 PWs)   bands (ev):

    -3.7530  -3.7530  -3.7524  -3.7523  -3.7519  -3.7518  -3.7354  -3.7353
    -3.7291  -3.7291  -3.7178  -3.7178  -3.7161  -3.7160  -3.7157  -3.7156
    -3.3272  -3.3271  -3.3254  -3.3252  -3.3247  -3.3245  -3.3233  -3.3233
    -3.2565  -3.2564  -3.2535  -3.2535  -3.2529  -3.2528  -3.2523  -3.2522
    -3.2432  -3.2431  -3.2425  -3.2425  -3.2418  -3.2417  -3.2412  -3.2412
    -2.5874  -2.5874  -0.6219  -0.6219  -0.6189  -0.6189   0.7103   0.7103
     1.3452   1.3453   2.8277   2.8277   2.8301   2.8303   2.9191   2.9192
     3.7252   3.7254   3.7287   3.7289   4.7682   4.7683   5.6800   5.6803
     5.6818   5.6818   6.2542   6.2548   6.8839   6.8840   7.1354   7.1359
     7.6754   7.6755   7.6780   7.6782   9.3914   9.3931   9.7532   9.7556
     9.9321   9.9334  10.1114  10.1131  11.2440  11.2441  11.2468  11.2469
    12.1428  12.1428  12.6909  12.6911  12.6934  12.6937  12.9640  12.9644
    13.4180  13.4183  13.5947  13.5962

          k = 0.0409 0.0000-0.0817 (  9246 PWs)   bands (ev):

    -3.7469  -3.7468  -3.7452  -3.7451  -3.7440  -3.7439  -3.7424  -3.7424
    -3.7255  -3.7254  -3.7246  -3.7246  -3.7237  -3.7236  -3.7229  -3.7228
    -3.3269  -3.3268  -3.3261  -3.3260  -3.3254  -3.3254  -3.3240  -3.3239
    -3.2604  -3.2604  -3.2597  -3.2596  -3.2558  -3.2558  -3.2555  -3.2554
    -3.2430  -3.2430  -3.2426  -3.2426  -3.2420  -3.2419  -3.2414  -3.2414
    -1.8265  -1.8265  -1.8244  -1.8243   0.1608   0.1608   0.1628   0.1629
     1.5323   1.5323   1.5340   1.5341   3.4009   3.4010   3.4045   3.4046
     3.5749   3.5749   3.5763   3.5764   5.4661   5.4664   5.4702   5.4703
     5.7724   5.7725   5.7748   5.7752   7.3345   7.3349   7.3377   7.3384
     8.4330   8.4332   8.4347   8.4353   9.4587   9.4589   9.4608   9.4612
    10.5237  10.5239  10.5261  10.5262  11.1804  11.1806  11.1824  11.1826
    12.2077  12.2089  12.2096  12.2109  12.3626  12.3639  12.3651  12.3657
    13.4067  13.4072  13.4080  13.4085

          k = 0.0409 0.0000-0.0409 (  9214 PWs)   bands (ev):

    -3.7531  -3.7529  -3.7523  -3.7523  -3.7519  -3.7518  -3.7355  -3.7354
    -3.7289  -3.7289  -3.7179  -3.7177  -3.7162  -3.7161  -3.7158  -3.7156
    -3.3272  -3.3270  -3.3254  -3.3252  -3.3247  -3.3246  -3.3234  -3.3233
    -3.2565  -3.2564  -3.2536  -3.2536  -3.2529  -3.2527  -3.2523  -3.2522
    -3.2432  -3.2431  -3.2425  -3.2424  -3.2417  -3.2416  -3.2412  -3.2412
    -2.5876  -2.5875  -0.6211  -0.6211  -0.6200  -0.6200   0.7103   0.7104
     1.3470   1.3472   2.8285   2.8286   2.8291   2.8292   2.9151   2.9152
     3.7281   3.7283   3.7298   3.7300   4.7683   4.7685   5.6784   5.6788
     5.6798   5.6799   6.2545   6.2565   6.8813   6.8817   7.1367   7.1385
     7.6761   7.6764   7.6775   7.6776   9.3890   9.3947   9.7503   9.7579
     9.9330   9.9375  10.1113  10.1161  11.2450  11.2452  11.2473  11.2476
    12.1422  12.1423  12.6888  12.6892  12.6909  12.6917  12.9647  12.9659
    13.4194  13.4197  13.5926  13.5975

          k = 0.0409 0.0409 0.0000 (  9214 PWs)   bands (ev):

    -3.7530  -3.7528  -3.7523  -3.7522  -3.7520  -3.7519  -3.7356  -3.7355
    -3.7289  -3.7288  -3.7178  -3.7176  -3.7164  -3.7163  -3.7157  -3.7156
    -3.3271  -3.3270  -3.3252  -3.3252  -3.3248  -3.3246  -3.3234  -3.3233
    -3.2566  -3.2565  -3.2539  -3.2538  -3.2525  -3.2524  -3.2521  -3.2520
    -3.2434  -3.2434  -3.2429  -3.2428  -3.2414  -3.2414  -3.2410  -3.2410
    -2.5877  -2.5876  -0.6240  -0.6240  -0.6174  -0.6174   0.7103   0.7104
     1.3483   1.3486   2.8261   2.8263   2.8315   2.8316   2.9122   2.9123
     3.7261   3.7263   3.7347   3.7349   4.7684   4.7686   5.6767   5.6769
     5.6789   5.6793   6.2555   6.2571   6.8797   6.8800   7.1381   7.1396
     7.6743   7.6746   7.6793   7.6795   9.3893   9.3941   9.7509   9.7574
     9.9352   9.9390  10.1123  10.1166  11.2448  11.2451  11.2490  11.2492
    12.1419  12.1420  12.6869  12.6874  12.6897  12.6902  12.9653  12.9663
    13.4206  13.4211  13.5927  13.5968

          k = 0.0409 0.0409 0.0409 (  9249 PWs)   bands (ev):

    -3.7514  -3.7513  -3.7508  -3.7507  -3.7503  -3.7502  -3.7409  -3.7408
    -3.7272  -3.7272  -3.7209  -3.7208  -3.7201  -3.7200  -3.7196  -3.7196
    -3.3283  -3.3282  -3.3262  -3.3261  -3.3255  -3.3254  -3.3241  -3.3241
    -3.2603  -3.2602  -3.2600  -3.2599  -3.2593  -3.2592  -3.2586  -3.2586
    -3.2400  -3.2400  -3.2396  -3.2396  -3.2389  -3.2389  -3.2373  -3.2373
    -2.3252  -2.3252  -0.3617  -0.3617  -0.3577  -0.3577  -0.3545  -0.3545
     1.7212   1.7213   1.7238   1.7239   1.7281   1.7282   3.7288   3.7289
     4.2846   4.2848   4.2873   4.2874   4.2924   4.2925   6.5248   6.5254
     6.5262   6.5267   6.5268   6.5282   7.4525   7.4530   7.4543   7.4552
     7.4567   7.4582   8.1614   8.1635   8.3131   8.3157   8.6799   8.6799
    10.6301  10.6306  11.0445  11.0445  11.1958  11.1960  12.1823  12.1826
    12.1847  12.1855  12.1876  12.1884  12.8265  12.8285  12.8295  12.8321
    12.8340  12.8349  13.1587  13.1611

          k = 0.0409 0.0409-0.0817 (  9230 PWs)   bands (ev):

    -3.7492  -3.7491  -3.7480  -3.7478  -3.7474  -3.7473  -3.7464  -3.7462
    -3.7259  -3.7259  -3.7253  -3.7253  -3.7244  -3.7242  -3.7240  -3.7238
    -3.3281  -3.3281  -3.3271  -3.3270  -3.3268  -3.3267  -3.3251  -3.3250
    -3.2651  -3.2651  -3.2644  -3.2643  -3.2631  -3.2630  -3.2621  -3.2621
    -3.2384  -3.2383  -3.2377  -3.2376  -3.2369  -3.2368  -3.2360  -3.2359
    -1.5613  -1.5613  -1.5591  -1.5591   0.2176   0.2177   0.2199   0.2200
     0.7064   0.7064   0.7089   0.7089   2.5101   2.5102   2.5124   2.5125
     4.5981   4.5982   4.6003   4.6004   6.3273   6.3275   6.3290   6.3296
     6.4840   6.4852   6.4881   6.4887   7.3113   7.3130   7.3145   7.3169
     8.5785   8.5796   8.5837   8.5852   9.5771   9.5779   9.5783   9.5786
     9.8467   9.8476   9.8488   9.8493  10.7255  10.7261  10.7290  10.7298
    11.8161  11.8172  11.8221  11.8244  12.5806  12.5826  12.5842  12.5862
    13.1070  13.1079  13.1089  13.1092

          k = 0.0409 0.0409-0.0409 (  9249 PWs)   bands (ev):

    -3.7514  -3.7513  -3.7507  -3.7506  -3.7502  -3.7502  -3.7410  -3.7409
    -3.7271  -3.7271  -3.7209  -3.7208  -3.7202  -3.7201  -3.7197  -3.7196
    -3.3283  -3.3282  -3.3262  -3.3261  -3.3255  -3.3254  -3.3242  -3.3241
    -3.2603  -3.2602  -3.2600  -3.2600  -3.2593  -3.2592  -3.2586  -3.2586
    -3.2400  -3.2400  -3.2396  -3.2396  -3.2389  -3.2388  -3.2373  -3.2373
    -2.3253  -2.3253  -0.3618  -0.3617  -0.3575  -0.3575  -0.3551  -0.3551
     1.7218   1.7219   1.7246   1.7247   1.7285   1.7285   3.7285   3.7287
     4.2846   4.2847   4.2860   4.2861   4.2909   4.2911   6.5248   6.5258
     6.5263   6.5268   6.5281   6.5292   7.4533   7.4537   7.4546   7.4558
     7.4569   7.4579   8.1598   8.1624   8.3122   8.3154   8.6796   8.6796
    10.6317  10.6323  11.0462  11.0462  11.1967  11.1969  12.1835  12.1840
    12.1855  12.1856  12.1886  12.1888  12.8243  12.8268  12.8287  12.8301
    12.8329  12.8345  13.1582  13.1614

          k = 0.0409-0.0817 0.0000 (  9246 PWs)   bands (ev):

    -3.7466  -3.7465  -3.7456  -3.7455  -3.7437  -3.7436  -3.7427  -3.7426
    -3.7251  -3.7251  -3.7245  -3.7245  -3.7237  -3.7237  -3.7231  -3.7230
    -3.3268  -3.3268  -3.3260  -3.3260  -3.3255  -3.3255  -3.3240  -3.3240
    -3.2603  -3.2603  -3.2599  -3.2599  -3.2556  -3.2556  -3.2553  -3.2553
    -3.2433  -3.2433  -3.2431  -3.2431  -3.2416  -3.2416  -3.2412  -3.2412
    -1.8274  -1.8273  -1.8235  -1.8235   0.1598   0.1598   0.1639   0.1639
     1.5313   1.5313   1.5350   1.5351   3.3983   3.3984   3.4070   3.4071
     3.5738   3.5740   3.5773   3.5775   5.4640   5.4643   5.4722   5.4724
     5.7709   5.7712   5.7762   5.7766   7.3323   7.3330   7.3397   7.3406
     8.4321   8.4325   8.4354   8.4363   9.4578   9.4578   9.4619   9.4621
    10.5230  10.5231  10.5268  10.5269  11.1799  11.1801  11.1828  11.1831
    12.2063  12.2080  12.2103  12.2125  12.3615  12.3635  12.3651  12.3671
    13.4064  13.4067  13.4085  13.4088

          k = 0.0409-0.0817 0.0409 (  9230 PWs)   bands (ev):

    -3.7490  -3.7489  -3.7484  -3.7483  -3.7472  -3.7471  -3.7465  -3.7465
    -3.7256  -3.7256  -3.7253  -3.7253  -3.7244  -3.7243  -3.7241  -3.7240
    -3.3281  -3.3281  -3.3273  -3.3272  -3.3266  -3.3265  -3.3251  -3.3251
    -3.2649  -3.2649  -3.2645  -3.2645  -3.2629  -3.2628  -3.2623  -3.2623
    -3.2384  -3.2384  -3.2380  -3.2379  -3.2366  -3.2365  -3.2360  -3.2360
    -1.5622  -1.5622  -1.5583  -1.5583   0.2196   0.2197   0.2256   0.2257
     0.6997   0.6998   0.7057   0.7057   2.5099   2.5099   2.5136   2.5136
     4.5980   4.5981   4.6038   4.6039   6.3240   6.3244   6.3281   6.3285
     6.4890   6.4894   6.4919   6.4921   7.3091   7.3101   7.3136   7.3142
     8.5757   8.5761   8.5805   8.5812   9.5803   9.5812   9.5821   9.5833
     9.8418   9.8428   9.8462   9.8469  10.7294  10.7300  10.7320  10.7321
    11.8159  11.8169  11.8217  11.8222  12.5766  12.5775  12.5800  12.5809
    13.1082  13.1089  13.1129  13.1130

          k = 0.0409-0.0817-0.0817 (  9256 PWs)   bands (ev):

    -3.7516  -3.7515  -3.7514  -3.7513  -3.7504  -3.7503  -3.7502  -3.7501
    -3.7262  -3.7261  -3.7260  -3.7259  -3.7250  -3.7249  -3.7247  -3.7247
    -3.3290  -3.3290  -3.3283  -3.3282  -3.3278  -3.3277  -3.3263  -3.3262
    -3.2682  -3.2681  -3.2680  -3.2680  -3.2672  -3.2671  -3.2669  -3.2669
    -3.2347  -3.2346  -3.2346  -3.2345  -3.2335  -3.2334  -3.2334  -3.2334
    -0.7981  -0.7981  -0.7953  -0.7953  -0.7933  -0.7933  -0.7921  -0.7921
     1.2880   1.2881   1.2910   1.2910   1.2930   1.2931   1.2942   1.2942
     5.8434   5.8435   5.8457   5.8458   5.8476   5.8477   5.8497   5.8499
     8.0136   8.0139   8.0155   8.0166   8.0185   8.0189   8.0197   8.0202
     8.7897   8.7901   8.7918   8.7918   8.7923   8.7932   8.7943   8.7948
    10.3527  10.3534  10.3547  10.3551  10.3562  10.3573  10.3579  10.3594
    10.6612  10.6620  10.6632  10.6643  10.6676  10.6694  10.6699  10.6702
    12.9898  12.9903  12.9927  12.9936

          k = 0.0409-0.0817-0.0409 (  9230 PWs)   bands (ev):

    -3.7490  -3.7488  -3.7483  -3.7481  -3.7472  -3.7471  -3.7465  -3.7464
    -3.7257  -3.7257  -3.7254  -3.7253  -3.7244  -3.7243  -3.7240  -3.7239
    -3.3281  -3.3281  -3.3273  -3.3272  -3.3266  -3.3265  -3.3251  -3.3251
    -3.2650  -3.2650  -3.2646  -3.2645  -3.2628  -3.2628  -3.2622  -3.2622
    -3.2384  -3.2383  -3.2379  -3.2379  -3.2366  -3.2365  -3.2361  -3.2360
    -1.5622  -1.5621  -1.5583  -1.5583   0.2174   0.2174   0.2234   0.2235
     0.7025   0.7025   0.7086   0.7087   2.5096   2.5098   2.5132   2.5134
     4.5969   4.5971   4.6029   4.6030   6.3252   6.3255   6.3293   6.3298
     6.4857   6.4867   6.4896   6.4907   7.3097   7.3120   7.3136   7.3165
     8.5775   8.5788   8.5820   8.5838   9.5788   9.5796   9.5804   9.5817
     9.8432   9.8444   9.8478   9.8486  10.7268  10.7274  10.7302  10.7309
    11.8160  11.8184  11.8208  11.8233  12.5790  12.5807  12.5821  12.5842
    13.1064  13.1075  13.1113  13.1117

          k = 0.0409-0.0409 0.0000 (  9214 PWs)   bands (ev):

    -3.7530  -3.7529  -3.7524  -3.7524  -3.7520  -3.7518  -3.7354  -3.7353
    -3.7292  -3.7291  -3.7178  -3.7177  -3.7163  -3.7162  -3.7156  -3.7155
    -3.3273  -3.3272  -3.3253  -3.3251  -3.3248  -3.3246  -3.3234  -3.3233
    -3.2566  -3.2565  -3.2538  -3.2538  -3.2526  -3.2525  -3.2521  -3.2520
    -3.2434  -3.2434  -3.2429  -3.2428  -3.2414  -3.2414  -3.2410  -3.2410
    -2.5873  -2.5873  -0.6210  -0.6210  -0.6195  -0.6195   0.7102   0.7104
     1.3438   1.3440   2.8278   2.8279   2.8301   2.8302   2.9219   2.9220
     3.7253   3.7255   3.7258   3.7260   4.7681   4.7682   5.6814   5.6816
     5.6826   5.6832   6.2532   6.2541   6.8855   6.8857   7.1340   7.1348
     7.6753   7.6756   7.6778   7.6781   9.3912   9.3939   9.7525   9.7564
     9.9298   9.9319  10.1101  10.1129  11.2436  11.2442  11.2451  11.2457
    12.1430  12.1431  12.6930  12.6934  12.6945  12.6947  12.9634  12.9640
    13.4166  13.4171  13.5946  13.5969

          k = 0.0409-0.0409 0.0409 (  9249 PWs)   bands (ev):

    -3.7514  -3.7513  -3.7509  -3.7508  -3.7503  -3.7501  -3.7409  -3.7409
    -3.7274  -3.7274  -3.7208  -3.7207  -3.7200  -3.7200  -3.7197  -3.7195
    -3.3285  -3.3284  -3.3262  -3.3260  -3.3255  -3.3254  -3.3241  -3.3241
    -3.2602  -3.2602  -3.2600  -3.2600  -3.2591  -3.2591  -3.2587  -3.2587
    -3.2400  -3.2400  -3.2396  -3.2395  -3.2389  -3.2389  -3.2373  -3.2373
    -2.3250  -2.3250  -0.3594  -0.3594  -0.3577  -0.3576  -0.3557  -0.3556
     1.7208   1.7208   1.7230   1.7231   1.7245   1.7246   3.7295   3.7295
     4.2882   4.2883   4.2896   4.2896   4.2935   4.2937   6.5235   6.5239
     6.5246   6.5251   6.5258   6.5263   7.4520   7.4528   7.4540   7.4543
     7.4556   7.4563   8.1648   8.1660   8.3154   8.3168   8.6807   8.6807
    10.6255  10.6258  11.0399  11.0399  11.1949  11.1950  12.1796  12.1800
    12.1822  12.1830  12.1844  12.1848  12.8315  12.8329  12.8344  12.8357
    12.8361  12.8389  13.1624  13.1641

          k = 0.0409-0.0409-0.0817 (  9230 PWs)   bands (ev):

    -3.7492  -3.7491  -3.7481  -3.7480  -3.7474  -3.7473  -3.7464  -3.7464
    -3.7258  -3.7257  -3.7254  -3.7253  -3.7243  -3.7242  -3.7240  -3.7239
    -3.3283  -3.3281  -3.3271  -3.3269  -3.3268  -3.3267  -3.3250  -3.3250
    -3.2650  -3.2649  -3.2642  -3.2642  -3.2631  -3.2631  -3.2622  -3.2622
    -3.2384  -3.2384  -3.2377  -3.2377  -3.2368  -3.2368  -3.2359  -3.2359
    -1.5613  -1.5613  -1.5593  -1.5592   0.2231   0.2232   0.2253   0.2254
     0.6995   0.6995   0.7018   0.7019   2.5113   2.5113   2.5125   2.5126
     4.6006   4.6008   4.6027   4.6028   6.3244   6.3246   6.3260   6.3265
     6.4883   6.4889   6.4957   6.4961   7.3092   7.3108   7.3111   7.3119
     8.5746   8.5752   8.5789   8.5799   9.5826   9.5837   9.5841   9.5847
     9.8408   9.8415   9.8431   9.8441  10.7284  10.7291  10.7352  10.7356
    11.8172  11.8179  11.8196  11.8209  12.5751  12.5761  12.5776  12.5787
    13.1105  13.1114  13.1123  13.1127

          k = 0.0409-0.0409-0.0409 (  9249 PWs)   bands (ev):

    -3.7515  -3.7513  -3.7508  -3.7507  -3.7502  -3.7502  -3.7410  -3.7409
    -3.7273  -3.7273  -3.7209  -3.7208  -3.7202  -3.7201  -3.7195  -3.7195
    -3.3284  -3.3283  -3.3262  -3.3260  -3.3256  -3.3254  -3.3241  -3.3241
    -3.2603  -3.2602  -3.2600  -3.2599  -3.2592  -3.2591  -3.2587  -3.2586
    -3.2400  -3.2400  -3.2396  -3.2396  -3.2389  -3.2389  -3.2373  -3.2373
    -2.3251  -2.3251  -0.3588  -0.3587  -0.3580  -0.3579  -0.3565  -0.3565
     1.7221   1.7222   1.7238   1.7239   1.7244   1.7245   3.7292   3.7293
     4.2870   4.2871   4.2884   4.2885   4.2929   4.2930   6.5241   6.5249
     6.5250   6.5252   6.5260   6.5275   7.4517   7.4526   7.4546   7.4553
     7.4559   7.4576   8.1628   8.1653   8.3139   8.3169   8.6804   8.6804
    10.6271  10.6277  11.0417  11.0417  11.1959  11.1961  12.1808  12.1815
    12.1822  12.1828  12.1858  12.1864  12.8300  12.8309  12.8323  12.8341
    12.8350  12.8382  13.1600  13.1633

          k =-0.0817 0.0000 0.0000 (  9242 PWs)   bands (ev):

    -3.7483  -3.7483  -3.7480  -3.7480  -3.7450  -3.7450  -3.7446  -3.7446
    -3.7215  -3.7215  -3.7210  -3.7210  -3.7189  -3.7189  -3.7184  -3.7184
    -3.3258  -3.3258  -3.3256  -3.3256  -3.3236  -3.3236  -3.3226  -3.3226
    -3.2558  -3.2558  -3.2557  -3.2557  -3.2480  -3.2480  -3.2474  -3.2474
    -3.2459  -3.2459  -3.2456  -3.2456  -3.2445  -3.2445  -3.2432  -3.2432
    -2.0949  -2.0949  -2.0930  -2.0930   1.2621   1.2621   1.2625   1.2625
     1.2682   1.2682   1.2687   1.2687   2.4744   2.4744   2.4751   2.4751
     4.6673   4.6673   4.6677   4.6677   4.8591   4.8591   4.8596   4.8596
     6.2745   6.2745   6.2761   6.2761   6.6440   6.6440   6.6461   6.6461
     6.9618   6.9618   6.9640   6.9640  10.2711  10.2711  10.2722  10.2722
    10.2808  10.2808  10.2819  10.2819  11.1339  11.1339  11.1349  11.1349
    12.8481  12.8481  12.8485  12.8485  13.3246  13.3246  13.3270  13.3270
    13.4541  13.4541  13.4571  13.4571

          k =-0.0817 0.0000 0.0409 (  9246 PWs)   bands (ev):

    -3.7462  -3.7461  -3.7459  -3.7459  -3.7434  -3.7433  -3.7430  -3.7430
    -3.7248  -3.7248  -3.7245  -3.7243  -3.7238  -3.7237  -3.7234  -3.7233
    -3.3268  -3.3267  -3.3260  -3.3260  -3.3255  -3.3255  -3.3240  -3.3240
    -3.2601  -3.2601  -3.2600  -3.2600  -3.2557  -3.2556  -3.2555  -3.2555
    -3.2429  -3.2429  -3.2427  -3.2427  -3.2420  -3.2420  -3.2414  -3.2414
    -1.8264  -1.8263  -1.8245  -1.8245   0.1610   0.1610   0.1627   0.1627
     1.5326   1.5326   1.5337   1.5338   3.4009   3.4010   3.4045   3.4046
     3.5752   3.5753   3.5760   3.5761   5.4662   5.4664   5.4702   5.4702
     5.7724   5.7726   5.7747   5.7752   7.3345   7.3349   7.3377   7.3383
[...]
    -3.2450  -3.2447  -3.2439  -3.2433  -3.2290  -3.2288  -3.2268  -3.2267
    -1.5831  -1.5828  -1.5414  -1.5412   0.1830   0.1833   0.2404   0.2409
     0.6859   0.6862   0.7425   0.7427   2.4905   2.4913   2.5309   2.5312
     4.5677   4.5693   4.6230   4.6237   6.3089   6.3103   6.3424   6.3467
     6.4674   6.4703   6.4978   6.5023   7.2893   7.3033   7.3336   7.3404
     8.5607   8.5734   8.6057   8.6083   9.5647   9.5669   9.5755   9.5873
     9.8270   9.8383   9.8698   9.8728  10.7090  10.7123  10.7305  10.7389
    11.8038  11.8098  11.8306  11.8407  12.5649  12.5787  12.6052  12.6114
    13.0750  13.0856  13.1256  13.1291

          k = 0.0409-0.0409 0.0000 (  9214 PWs)   bands (ev):

    -3.7688  -3.7685  -3.7643  -3.7640  -3.7510  -3.7506  -3.7386  -3.7382
    -3.7318  -3.7318  -3.7261  -3.7248  -3.7102  -3.7099  -3.7074  -3.7067
    -3.3488  -3.3487  -3.3288  -3.3286  -3.3282  -3.3279  -3.3100  -3.3096
    -3.2731  -3.2726  -3.2696  -3.2695  -3.2580  -3.2573  -3.2554  -3.2547
    -3.2464  -3.2462  -3.2436  -3.2434  -3.2326  -3.2324  -3.2291  -3.2289
    -2.5898  -2.5894  -0.6271  -0.6269  -0.6190  -0.6186   0.7091   0.7093
     1.3506   1.3525   2.8247   2.8253   2.8281   2.8290   2.9040   2.9042
     3.7213   3.7229   3.7485   3.7500   4.7685   4.7697   5.6699   5.6711
     5.6768   5.6772   6.2516   6.2667   6.8728   6.8757   7.1364   7.1507
     7.6732   7.6734   7.6808   7.6818   9.3679   9.4128   9.7226   9.7809
     9.9289   9.9630  10.0999  10.1372  11.2410  11.2439  11.2517  11.2541
    12.1401  12.1411  12.6775  12.6821  12.6836  12.6882  12.9643  12.9736
    13.4222  13.4252  13.5761  13.6144

          k = 0.0409-0.0409 0.0409 (  9249 PWs)   bands (ev):

    -3.7679  -3.7675  -3.7636  -3.7631  -3.7502  -3.7497  -3.7432  -3.7427
    -3.7312  -3.7308  -3.7285  -3.7276  -3.7130  -3.7127  -3.7106  -3.7098
    -3.3500  -3.3499  -3.3301  -3.3294  -3.3286  -3.3284  -3.3109  -3.3103
    -3.2776  -3.2774  -3.2737  -3.2733  -3.2599  -3.2596  -3.2578  -3.2571
    -3.2465  -3.2462  -3.2446  -3.2443  -3.2302  -3.2299  -3.2277  -3.2275
    -2.3275  -2.3274  -0.3866  -0.3865  -0.3657  -0.3653  -0.3291  -0.3289
     1.6978   1.6986   1.7319   1.7324   1.7509   1.7515   3.7270   3.7281
     4.2460   4.2471   4.2871   4.2878   4.3152   4.3160   6.5191   6.5213
     6.5256   6.5287   6.5374   6.5405   7.4385   7.4446   7.4514   7.4633
     7.4684   7.4747   8.1465   8.1653   8.2998   8.3225   8.6785   8.6792
    10.6376  10.6421  11.0527  11.0533  11.1996  11.2015  12.1618  12.1636
    12.1903  12.1941  12.2092  12.2109  12.7904  12.8044  12.8152  12.8261
    12.8456  12.8572  13.1263  13.1356

          k = 0.0409-0.0409-0.0817 (  9230 PWs)   bands (ev):

    -3.7673  -3.7667  -3.7622  -3.7615  -3.7494  -3.7490  -3.7470  -3.7463
    -3.7322  -3.7315  -3.7298  -3.7294  -3.7161  -3.7155  -3.7137  -3.7130
    -3.3510  -3.3508  -3.3305  -3.3299  -3.3296  -3.3291  -3.3116  -3.3109
    -3.2813  -3.2809  -3.2770  -3.2767  -3.2627  -3.2624  -3.2608  -3.2601
    -3.2464  -3.2461  -3.2439  -3.2436  -3.2284  -3.2282  -3.2272  -3.2269
    -1.5677  -1.5676  -1.5570  -1.5569   0.1928   0.1934   0.2307   0.2314
     0.6930   0.6932   0.7348   0.7349   2.5061   2.5071   2.5150   2.5158
     4.5768   4.5776   4.6161   4.6168   6.3066   6.3095   6.3417   6.3454
     6.4711   6.4804   6.4913   6.4964   7.2982   7.3150   7.3238   7.3323
     8.5757   8.5860   8.5877   8.5981   9.5689   9.5700   9.5770   9.5787
     9.8341   9.8387   9.8642   9.8677  10.7151  10.7202  10.7260  10.7297
    11.8025  11.8183  11.8293  11.8354  12.5764  12.5848  12.5971  12.5998
    13.0904  13.0975  13.1112  13.1166

          k = 0.0409-0.0409-0.0409 (  9249 PWs)   bands (ev):

    -3.7682  -3.7680  -3.7633  -3.7629  -3.7502  -3.7498  -3.7432  -3.7427
    -3.7313  -3.7309  -3.7285  -3.7275  -3.7133  -3.7130  -3.7103  -3.7095
    -3.3501  -3.3499  -3.3300  -3.3295  -3.3286  -3.3284  -3.3109  -3.3104
    -3.2778  -3.2772  -3.2735  -3.2732  -3.2601  -3.2595  -3.2577  -3.2571
    -3.2465  -3.2463  -3.2447  -3.2442  -3.2303  -3.2301  -3.2276  -3.2275
    -2.3270  -2.3269  -0.3961  -0.3960  -0.3616  -0.3612  -0.3214  -0.3212
     1.6854   1.6861   1.7288   1.7295   1.7578   1.7587   3.7278   3.7287
     4.2405   4.2418   4.3004   4.3020   4.3195   4.3199   6.5123   6.5206
     6.5237   6.5280   6.5341   6.5387   7.4348   7.4402   7.4527   7.4597
     7.4671   7.4765   8.1521   8.1715   8.3023   8.3255   8.6797   8.6809
    10.6297  10.6344  11.0450  11.0455  11.1957  11.1976  12.1527  12.1555
    12.1956  12.1969  12.2016  12.2063  12.7879  12.8083  12.8179  12.8364
    12.8499  12.8742  13.1243  13.1396

          k =-0.0817 0.0000 0.0000 (  9242 PWs)   bands (ev):

    -3.7664  -3.7664  -3.7616  -3.7616  -3.7450  -3.7450  -3.7404  -3.7404
    -3.7313  -3.7313  -3.7278  -3.7278  -3.7105  -3.7105  -3.7080  -3.7080
    -3.3484  -3.3484  -3.3291  -3.3291  -3.3265  -3.3265  -3.3079  -3.3079
    -3.2757  -3.2757  -3.2669  -3.2669  -3.2564  -3.2564  -3.2533  -3.2533
    -3.2491  -3.2491  -3.2455  -3.2455  -3.2341  -3.2341  -3.2285  -3.2285
    -2.1203  -2.1203  -2.0702  -2.0702   1.2154   1.2154   1.2552   1.2552
     1.2699   1.2699   1.3129   1.3129   2.4486   2.4486   2.5039   2.5039
     4.6415   4.6415   4.6906   4.6906   4.8562   4.8562   4.8643   4.8643
     6.2649   6.2649   6.2814   6.2814   6.6229   6.6229   6.6709   6.6709
     6.9393   6.9393   6.9887   6.9887  10.2348  10.2348  10.2689  10.2689
    10.2828  10.2828  10.3183  10.3183  11.1097  11.1097  11.1566  11.1566
    12.8336  12.8336  12.8614  12.8614  13.2944  13.2944  13.3508  13.3508
    13.4381  13.4381  13.4778  13.4778

          k =-0.0817 0.0000 0.0409 (  9246 PWs)   bands (ev):

    -3.7657  -3.7655  -3.7602  -3.7600  -3.7440  -3.7436  -3.7402  -3.7389
    -3.7344  -3.7337  -3.7322  -3.7314  -3.7141  -3.7135  -3.7117  -3.7113
    -3.3501  -3.3499  -3.3296  -3.3292  -3.3282  -3.3280  -3.3089  -3.3084
    -3.2778  -3.2776  -3.2740  -3.2737  -3.2566  -3.2561  -3.2553  -3.2547
    -3.2524  -3.2521  -3.2478  -3.2473  -3.2325  -3.2322  -3.2291  -3.2289
    -1.8522  -1.8517  -1.8019  -1.8017   0.1335   0.1340   0.1864   0.1865
     1.5046   1.5052   1.5598   1.5600   3.3730   3.3740   3.4287   3.4296
     3.5512   3.5521   3.6006   3.6024   5.4476   5.4489   5.4886   5.4895
     5.7609   5.7627   5.7851   5.7869   7.3112   7.3189   7.3516   7.3612
     8.4073   8.4131   8.4535   8.4636   9.4402   9.4427   9.4764   9.4775
    10.5019  10.5030  10.5469  10.5482  11.1640  11.1672  11.1956  11.1971
    12.1787  12.1952  12.2141  12.2377  12.3335  12.3543  12.3765  12.4031
    13.3959  13.4011  13.4146  13.4186

          k =-0.0817 0.0000-0.0817 (  9220 PWs)   bands (ev):

    -3.7647  -3.7647  -3.7580  -3.7580  -3.7414  -3.7414  -3.7399  -3.7399
    -3.7381  -3.7381  -3.7344  -3.7344  -3.7183  -3.7183  -3.7141  -3.7141
    -3.3514  -3.3514  -3.3303  -3.3303  -3.3287  -3.3287  -3.3086  -3.3086
    -3.2812  -3.2812  -3.2787  -3.2787  -3.2597  -3.2597  -3.2578  -3.2578
    -3.2517  -3.2517  -3.2485  -3.2485  -3.2311  -3.2311  -3.2289  -3.2289
    -1.0992  -1.0992  -1.0641  -1.0641  -1.0335  -1.0335  -1.0086  -1.0086
     2.2754   2.2754   2.3084   2.3084   2.3417   2.3417   2.3634   2.3634
     4.3475   4.3475   4.3824   4.3824   4.4195   4.4195   4.4380   4.4380
     7.8005   7.8005   7.8243   7.8243   7.8555   7.8555   7.8811   7.8811
     8.5994   8.5994   8.6217   8.6217   8.6368   8.6368   8.6611   8.6611
    11.0572  11.0572  11.0671  11.0671  11.0927  11.0927  11.0997  11.0997
    11.4056  11.4056  11.4078  11.4078  11.4303  11.4303  11.4502  11.4502
    13.8590  13.8590  13.8719  13.8719

          k =-0.0817 0.0409 0.0000 (  9246 PWs)   bands (ev):

    -3.7653  -3.7651  -3.7601  -3.7598  -3.7449  -3.7447  -3.7413  -3.7409
    -3.7333  -3.7327  -3.7303  -3.7300  -3.7145  -3.7144  -3.7117  -3.7113
    -3.3500  -3.3498  -3.3296  -3.3293  -3.3283  -3.3279  -3.3091  -3.3086
    -3.2770  -3.2769  -3.2724  -3.2722  -3.2622  -3.2617  -3.2589  -3.2584
    -3.2464  -3.2461  -3.2445  -3.2442  -3.2340  -3.2338  -3.2298  -3.2295
    -1.8522  -1.8518  -1.8021  -1.8018   0.1336   0.1340   0.1866   0.1868
     1.5049   1.5052   1.5601   1.5604   3.3737   3.3743   3.4281   3.4284
     3.5512   3.5517   3.6015   3.6016   5.4456   5.4478   5.4864   5.4875
     5.7630   5.7634   5.7855   5.7881   7.3150   7.3168   7.3558   7.3595
     8.4095   8.4101   8.4572   8.4587   9.4407   9.4427   9.4760   9.4775
    10.5023  10.5034  10.5473  10.5484  11.1644  11.1671  11.1961  11.1983
    12.1876  12.1894  12.2249  12.2306  12.3400  12.3464  12.3857  12.3886
    13.3961  13.4002  13.4127  13.4176

          k =-0.0817 0.0409 0.0409 (  9230 PWs)   bands (ev):

    -3.7679  -3.7677  -3.7626  -3.7623  -3.7481  -3.7475  -3.7457  -3.7450
    -3.7335  -3.7328  -3.7313  -3.7307  -3.7159  -3.7153  -3.7127  -3.7124
    -3.3512  -3.3509  -3.3305  -3.3300  -3.3298  -3.3294  -3.3107  -3.3104
    -3.2800  -3.2796  -3.2782  -3.2778  -3.2637  -3.2628  -3.2615  -3.2612
    -3.2452  -3.2448  -3.2438  -3.2432  -3.2294  -3.2292  -3.2265  -3.2263
    -1.5874  -1.5870  -1.5370  -1.5368   0.2051   0.2054   0.2561   0.2564
     0.6646   0.6647   0.7147   0.7149   2.4877   2.4883   2.5375   2.5380
     4.5795   4.5807   4.6296   4.6308   6.3085   6.3112   6.3263   6.3292
     6.4909   6.4953   6.5148   6.5185   7.2762   7.2837   7.3242   7.3364
     8.5370   8.5409   8.5895   8.5993   9.5756   9.5802   9.5898   9.6011
     9.8200   9.8291   9.8515   9.8572  10.7261  10.7340  10.7521  10.7558
    11.7910  11.7957  11.8335  11.8459  12.5360  12.5451  12.5788  12.5957
    13.0884  13.0967  13.1403  13.1441

          k =-0.0817 0.0409-0.0817 (  9256 PWs)   bands (ev):

    -3.7701  -3.7698  -3.7651  -3.7649  -3.7513  -3.7508  -3.7490  -3.7485
    -3.7343  -3.7333  -3.7320  -3.7314  -3.7167  -3.7164  -3.7139  -3.7136
    -3.3520  -3.3519  -3.3316  -3.3313  -3.3305  -3.3302  -3.3122  -3.3119
    -3.2826  -3.2824  -3.2820  -3.2818  -3.2657  -3.2655  -3.2647  -3.2643
    -3.2433  -3.2429  -3.2418  -3.2416  -3.2258  -3.2254  -3.2247  -3.2246
    -0.8441  -0.8440  -0.8091  -0.8091  -0.7800  -0.7798  -0.7528  -0.7528
     1.2451   1.2455   1.2777   1.2781   1.3161   1.3162   1.3272   1.3273
     5.7986   5.7994   5.8324   5.8326   5.8715   5.8722   5.8817   5.8821
     7.9722   7.9766   7.9996   8.0024   8.0307   8.0323   8.0575   8.0593
     8.7603   8.7637   8.7801   8.7868   8.8006   8.8030   8.8201   8.8220
    10.3196  10.3284  10.3397  10.3405  10.3707  10.3728  10.3787  10.3855
    10.6257  10.6291  10.6565  10.6598  10.6771  10.6823  10.7025  10.7112
    12.9610  12.9625  12.9814  12.9858

          k =-0.0817 0.0409-0.0409 (  9230 PWs)   bands (ev):

    -3.7673  -3.7670  -3.7629  -3.7624  -3.7476  -3.7473  -3.7455  -3.7448
    -3.7339  -3.7329  -3.7314  -3.7310  -3.7153  -3.7152  -3.7133  -3.7128
    -3.3510  -3.3509  -3.3307  -3.3302  -3.3294  -3.3291  -3.3108  -3.3101
    -3.2803  -3.2798  -3.2783  -3.2780  -3.2635  -3.2630  -3.2617  -3.2614
    -3.2452  -3.2447  -3.2438  -3.2434  -3.2289  -3.2287  -3.2268  -3.2266
    -1.5871  -1.5868  -1.5369  -1.5368   0.1762   0.1765   0.2370   0.2375
     0.6924   0.6925   0.7486   0.7487   2.4853   2.4860   2.5346   2.5352
     4.5643   4.5654   4.6232   4.6239   6.3160   6.3171   6.3425   6.3476
     6.4587   6.4615   6.4927   6.4985   7.2914   7.3001   7.3360   7.3500
     8.5627   8.5709   8.6124   8.6205   9.5583   9.5605   9.5746   9.5859
     9.8304   9.8423   9.8728   9.8771  10.7007  10.7033  10.7304  10.7391
    11.8021  11.8100  11.8337  11.8434  12.5683  12.5787  12.6127  12.6229
    13.0669  13.0761  13.1261  13.1299

          k =-0.0817-0.0817 0.0000 (  9220 PWs)   bands (ev):

    -3.7638  -3.7638  -3.7573  -3.7573  -3.7457  -3.7457  -3.7435  -3.7435
    -3.7333  -3.7333  -3.7310  -3.7310  -3.7199  -3.7199  -3.7145  -3.7145
    -3.3512  -3.3512  -3.3299  -3.3299  -3.3290  -3.3290  -3.3093  -3.3093
    -3.2788  -3.2788  -3.2765  -3.2765  -3.2664  -3.2664  -3.2642  -3.2642
    -3.2445  -3.2445  -3.2431  -3.2431  -3.2337  -3.2337  -3.2302  -3.2302
    -1.1056  -1.1056  -1.0547  -1.0547  -1.0516  -1.0516  -0.9933  -0.9933
     2.2662   2.2662   2.3177   2.3177   2.3281   2.3281   2.3787   2.3787
     4.3429   4.3429   4.3898   4.3898   4.3984   4.3984   4.4520   4.4520
     7.7986   7.7986   7.8319   7.8319   7.8444   7.8444   7.8877   7.8877
     8.6086   8.6086   8.6251   8.6251   8.6339   8.6339   8.6539   8.6539
    11.0476  11.0476  11.0654  11.0654  11.0949  11.0949  11.1037  11.1037
    11.3946  11.3946  11.4073  11.4073  11.4363  11.4363  11.4617  11.4617
    13.8681  13.8682  13.8788  13.8789

          k =-0.0817-0.0817 0.0409 (  9256 PWs)   bands (ev):

    -3.7696  -3.7695  -3.7653  -3.7646  -3.7515  -3.7509  -3.7498  -3.7495
    -3.7329  -3.7328  -3.7316  -3.7314  -3.7171  -3.7169  -3.7138  -3.7137
    -3.3519  -3.3518  -3.3314  -3.3312  -3.3305  -3.3304  -3.3124  -3.3120
    -3.2827  -3.2819  -3.2809  -3.2807  -3.2670  -3.2665  -3.2662  -3.2659
    -3.2414  -3.2413  -3.2411  -3.2406  -3.2264  -3.2264  -3.2250  -3.2247
    -0.8503  -0.8501  -0.8005  -0.8003  -0.7963  -0.7961  -0.7385  -0.7385
     1.2374   1.2379   1.2863   1.2867   1.2965   1.2969   1.3455   1.3457
     5.7919   5.7930   5.8413   5.8421   5.8487   5.8495   5.8995   5.9001
     7.9731   7.9768   8.0045   8.0081   8.0209   8.0255   8.0599   8.0645
     8.7683   8.7721   8.7892   8.7923   8.7966   8.8002   8.8098   8.8131
    10.3078  10.3170  10.3443  10.3526  10.3573  10.3631  10.3895  10.3958
    10.6193  10.6221  10.6511  10.6634  10.6747  10.6863  10.7156  10.7190
    12.9552  12.9565  12.9872  12.9911

          k =-0.0817-0.0817-0.0817 (  9328 PWs)   bands (ev):

    -3.7751  -3.7751  -3.7711  -3.7711  -3.7574  -3.7574  -3.7557  -3.7557
    -3.7323  -3.7323  -3.7310  -3.7310  -3.7157  -3.7157  -3.7133  -3.7133
    -3.3525  -3.3525  -3.3326  -3.3326  -3.3319  -3.3319  -3.3149  -3.3149
    -3.2847  -3.2847  -3.2830  -3.2830  -3.2687  -3.2687  -3.2682  -3.2682
    -3.2380  -3.2380  -3.2373  -3.2373  -3.2214  -3.2214  -3.2208  -3.2208
    -0.3059  -0.3059  -0.2581  -0.2581  -0.2484  -0.2484  -0.1992  -0.1992
     0.2576   0.2576   0.2979   0.2979   0.3126   0.3126   0.3545   0.3545
     7.7573   7.7573   7.7766   7.7766   7.7827   7.7827   7.8121   7.8121
     8.0618   8.0618   8.0765   8.0765   8.0955   8.0955   8.1105   8.1105
     8.4231   8.4231   8.4321   8.4321   8.4612   8.4612   8.4639   8.4639
     9.8374   9.8374   9.8659   9.8659   9.8734   9.8734   9.8944   9.8944
    10.2512  10.2512  10.2685  10.2685  10.2949  10.2949  10.3051  10.3051
    11.0556  11.0556  11.0869  11.0869

     the Fermi energy is    12.2616 ev

!    total energy              =    -831.57491297 Ry
     Harris-Foulkes estimate   =    -831.57491341 Ry
     estimated scf accuracy    <       0.00000080 Ry

     convergence has been achieved in   3 iterations

     Forces acting on atoms (Ry/au):

     atom    1 type  1   force =     0.00580336    0.01671877   -0.00372852
     atom    2 type  1   force =     0.00148169    0.00453460    0.00600914
     atom    3 type  1   force =     0.01287145   -0.00132354    0.00285883
     atom    4 type  1   force =     0.00043139    0.00221937   -0.00372933
     atom    5 type  2   force =    -0.01018540    0.00364906   -0.00814614
     atom    6 type  2   force =    -0.00756166   -0.00184239    0.00739496
     atom    7 type  2   force =     0.00289741   -0.00682092    0.00150791
     atom    8 type  2   force =     0.00485351    0.00230955    0.00009443
     atom    9 type  2   force =    -0.00666688   -0.00789599    0.00577349
     atom   10 type  2   force =    -0.00424538   -0.00414609    0.00008153
     atom   11 type  2   force =     0.00233292   -0.00757027   -0.00215794
     atom   12 type  2   force =    -0.00201240    0.00016785   -0.00595835

     Total force =     0.035323     Total SCF correction =     0.003480

     The maximum number of steps has been reached.

     End of molecular dynamics calculation

     diffusion coefficients :
     atom     1   D =       0.00000053 cm^2/s
     atom     2   D =       0.00000009 cm^2/s
     atom     3   D =       0.00000014 cm^2/s
     atom     4   D =       0.00000005 cm^2/s
     atom     5   D =       0.00000011 cm^2/s
     atom     6   D =       0.00000003 cm^2/s
     atom     7   D =       0.00000006 cm^2/s
     atom     8   D =       0.00000001 cm^2/s
     atom     9   D =       0.00000002 cm^2/s
     atom    10   D =       0.00000021 cm^2/s
     atom    11   D =       0.00000011 cm^2/s
     atom    12   D =       0.00000001 cm^2/s

     < D > =       0.00000011 cm^2/s

     Entering Dynamics:    iteration =    51
                           time      =   0.0510 pico-seconds


     Andersen thermostat:   12 collisions

ATOMIC_POSITIONS (alat)
Ga      -0.016831360  -0.035650101  -0.002880628
Ga       3.048329794   3.044964679  -0.003542975
Ga       3.042597932   0.006539826   3.050507630
Ga       0.007297219   3.059225893   3.070927796
Sb       1.537703216   1.516398255   1.536480809
Sb       1.539868373   1.527902046   4.583572054
Sb       1.520881582   4.593607277   1.520585626
Sb       4.590246178   1.525976448   1.530253059
Sb       4.587300150   4.597454527   1.532069652
Sb       1.548828901   4.599768817   4.583725544
Sb       4.587200404   1.546716377   4.599814635
Sb       4.580932998   4.588753211   4.587209731


     kinetic energy (Ekin) =     0.03625893 Ry
     temperature           =   346.95908642 K 
     Ekin + Etot (const)   =  -831.53865404 Ry
     Message from routine dynamics:
     Total linear momentum <> 0

     Linear momentum :   -7.1518709224   28.6962492159   -0.3194946124

     Writing output data file x.save
 
     init_run     :      9.65s CPU      9.92s WALL (       1 calls)
     electrons    :   5220.42s CPU   5327.67s WALL (      51 calls)
     update_pot   :      4.08s CPU      5.48s WALL (      50 calls)
     forces       :    435.81s CPU    439.59s WALL (      51 calls)

     Called by init_run:
     wfcinit      :      9.18s CPU      9.39s WALL (       1 calls)
     potinit      :      0.03s CPU      0.03s WALL (       1 calls)

     Called by electrons:
     c_bands      :   4687.94s CPU   4778.55s WALL (     168 calls)
     sum_band     :    500.49s CPU    510.32s WALL (     168 calls)
     v_of_rho     :      1.38s CPU      1.41s WALL (     169 calls)
     newd         :     42.46s CPU     46.79s WALL (     169 calls)
     mix_rho      :      0.32s CPU      0.33s WALL (     168 calls)

     Called by c_bands:
     init_us_2    :     25.20s CPU     25.41s WALL (   13968 calls)
     cegterg      :   4073.02s CPU   4159.51s WALL (    6048 calls)

     Called by sum_band:
     sum_band:bec :     88.18s CPU     88.44s WALL (    6048 calls)
     addusdens    :     20.23s CPU     25.02s WALL (     168 calls)

     Called by *egterg:
     h_psi        :   2213.11s CPU   2243.75s WALL (   28745 calls)
     s_psi        :    436.48s CPU    438.26s WALL (   28745 calls)
     g_psi        :     15.24s CPU     15.27s WALL (   22661 calls)
     cdiaghg      :    716.99s CPU    719.76s WALL (   25109 calls)

     Called by h_psi:
     add_vuspsi   :    411.17s CPU    415.39s WALL (   28745 calls)

     General routines
     calbec       :    525.23s CPU    529.85s WALL (   42137 calls)
     fft          :      1.60s CPU      1.62s WALL (    3768 calls)
     fftw         :   1605.35s CPU   1626.33s WALL ( 8300008 calls)
     davcio       :      0.01s CPU      0.09s WALL (      36 calls)
 
     Parallel routines
     fft_scatter  :    549.45s CPU    552.80s WALL ( 8303776 calls)
 
     PWSCF        :     1h34m CPU        1h37m WALL

 
   This run was terminated on:  16:59:51   4Nov2016            

=------------------------------------------------------------------------------=
   JOB DONE.
=------------------------------------------------------------------------------=
